PA260506_08
  1787
    1MOL      H    1  -0.529   0.015  -1.764
    1MOL      C    2  -0.432  -0.031  -1.748
    1MOL      C    3  -0.414  -0.168  -1.778
    1MOL      C    4  -0.290  -0.230  -1.757
    1MOL      C    5  -0.187  -0.152  -1.708
    1MOL      C    6  -0.205  -0.018  -1.680
    1MOL      C    7  -0.326   0.045  -1.699
    1MOL      C    8  -0.079   0.033  -1.626
    1MOL      O    9  -0.068   0.150  -1.596
    1MOL      N   10   0.009  -0.073  -1.621
    1MOL      C   11  -0.049  -0.187  -1.673
    1MOL      O   12  -0.008  -0.301  -1.686
    1MOL      C   13   0.135  -0.072  -1.554
    1MOL      C   14   0.162   0.025  -1.456
    1MOL      C   15   0.271   0.011  -1.369
    1MOL      C   16   0.359  -0.095  -1.383
    1MOL      C   17   0.344  -0.183  -1.491
    1MOL      C   18   0.231  -0.172  -1.573
    1MOL      N   19   0.457  -0.121  -1.284
    1MOL      C   20   0.409  -0.140  -1.153
    1MOL      O   21   0.379  -0.047  -1.080
    1MOL      C   22   0.377  -0.284  -1.118
    1MOL      C   23   0.443  -0.388  -1.187
    1MOL      C   24   0.384  -0.513  -1.202
    1MOL      C   25   0.256  -0.535  -1.152
    1MOL      C   26   0.196  -0.436  -1.073
    1MOL      C   27   0.260  -0.313  -1.046
    1MOL      N   28   0.208  -0.229  -0.942
    1MOL      C   29   0.288  -0.174  -0.844
    1MOL      O   30   0.409  -0.184  -0.825
    1MOL      C   31   0.198  -0.112  -0.748
    1MOL      C   32   0.068  -0.145  -0.781
    1MOL      C   33   0.076  -0.225  -0.904
    1MOL      O   34  -0.022  -0.277  -0.953
    1MOL      C   35  -0.042  -0.108  -0.703
    1MOL      C   36  -0.021  -0.029  -0.590
    1MOL      C   37   0.113   0.008  -0.560
    1MOL      C   38   0.223  -0.036  -0.636
    1MOL      C   39  -0.127   0.008  -0.488
    1MOL      O   40  -0.087   0.070  -0.388
    1MOL      N   41  -0.258  -0.034  -0.507
    1MOL      C   42  -0.353  -0.061  -0.403
    1MOL      C   43  -0.478  -0.116  -0.436
    1MOL      C   44  -0.562  -0.177  -0.340
    1MOL      C   45  -0.522  -0.182  -0.208
    1MOL      C   46  -0.404  -0.115  -0.173
    1MOL      C   47  -0.322  -0.054  -0.269
    1MOL      O   48  -0.569  -0.266  -0.110
    1MOL      C   49  -0.698  -0.308  -0.090
    1MOL      C   50  -0.811  -0.256  -0.152
    1MOL      C   51  -0.939  -0.286  -0.101
    1MOL      C   52  -0.955  -0.372   0.007
    1MOL      C   53  -0.843  -0.428   0.067
    1MOL      C   54  -0.716  -0.397   0.019
    1MOL      O   55  -0.607  -0.427   0.098
    1MOL      C   56  -0.549  -0.551   0.092
    1MOL      C   57  -0.411  -0.548   0.116
    1MOL      C   58  -0.337  -0.665   0.122
    1MOL      C   59  -0.397  -0.787   0.099
    1MOL      C   60  -0.536  -0.794   0.082
    1MOL      C   61  -0.612  -0.675   0.078
    1MOL      N   62  -0.310  -0.898   0.087
    1MOL      C   63  -0.329  -0.998  -0.006
    1MOL      O   64  -0.359  -1.113   0.024
    1MOL      C   65  -0.304  -0.962  -0.148
    1MOL      C   66  -0.206  -1.028  -0.221
    1MOL      C   67  -0.205  -1.017  -0.362
    1MOL      C   68  -0.308  -0.950  -0.430
    1MOL      C   69  -0.394  -0.871  -0.354
    1MOL      C   70  -0.391  -0.876  -0.215
    1MOL      N   71  -0.340  -0.981  -0.565
    1MOL      C   72  -0.469  -1.012  -0.604
    1MOL      O   73  -0.577  -0.987  -0.552
    1MOL      C   74  -0.459  -1.101  -0.720
    1MOL      C   75  -0.326  -1.112  -0.751
    1MOL      C   76  -0.250  -1.030  -0.656
    1MOL      O   77  -0.129  -1.016  -0.665
    1MOL      C   78  -0.280  -1.203  -0.845
    1MOL      C   79  -0.372  -1.292  -0.905
    1MOL      C   80  -0.509  -1.276  -0.875
    1MOL      C   81  -0.554  -1.179  -0.783
    1MOL      C   82   0.184  -0.664  -1.176
    1MOL      H   83  -0.498  -0.226  -1.815
    1MOL      H   84  -0.276  -0.335  -1.778
    1MOL      H   85  -0.338   0.151  -1.676
    1MOL      H   86   0.093   0.106  -1.435
    1MOL      H   87   0.283   0.083  -1.288
    1MOL      H   88   0.413  -0.265  -1.506
    1MOL      H   89   0.218  -0.248  -1.650
    1MOL      H   90   0.523  -0.192  -1.313
    1MOL      H   91   0.539  -0.372  -1.236
    1MOL      H   92   0.436  -0.590  -1.258
    1MOL      H   93   0.099  -0.459  -1.031
    1MOL      H   94  -0.140  -0.144  -0.731
    1MOL      H   95   0.133   0.069  -0.473
    1MOL      H   96   0.325  -0.009  -0.609
    1MOL      H   97  -0.284  -0.065  -0.600
    1MOL      H   98  -0.510  -0.122  -0.538
    1MOL      H   99  -0.648  -0.232  -0.376
    1MOL      H  100  -0.367  -0.121  -0.071
    1MOL      H  101  -0.229  -0.013  -0.233
    1MOL      H  102  -0.805  -0.184  -0.232
    1MOL      H  103  -1.025  -0.236  -0.142
    1MOL      H  104  -1.053  -0.392   0.049
    1MOL      H  105  -0.854  -0.488   0.158
    1MOL      H  106  -0.361  -0.452   0.130
    1MOL      H  107  -0.231  -0.658   0.141
    1MOL      H  108  -0.586  -0.890   0.070
    1MOL      H  109  -0.719  -0.682   0.064
    1MOL      H  110  -0.213  -0.869   0.091
    1MOL      H  111  -0.137  -1.096  -0.172
    1MOL      H  112  -0.133  -1.077  -0.415
    1MOL      H  113  -0.471  -0.812  -0.404
    1MOL      H  114  -0.465  -0.821  -0.159
    1MOL      H  115  -0.173  -1.213  -0.862
    1MOL      H  116  -0.582  -1.344  -0.920
    1MOL      H  117  -0.659  -1.171  -0.756
    1MOL      H  118   0.161  -0.713  -1.080
    1MOL      H  119   0.244  -0.733  -1.236
    1MOL      H  120   0.091  -0.645  -1.229
    1MOL      C  121  -0.318  -1.405  -0.983
    1MOL      C  122  -0.267  -1.385  -1.114
    1MOL      C  123  -0.183  -1.480  -1.174
    1MOL      C  124  -0.152  -1.594  -1.102
    1MOL      C  125  -0.210  -1.619  -0.980
    1MOL      C  126  -0.294  -1.528  -0.918
    1MOL      C  127  -0.141  -1.735  -0.923
    1MOL      O  128  -0.179  -1.784  -0.817
    1MOL      N  129  -0.031  -1.761  -1.002
    1MOL      C  130  -0.039  -1.686  -1.118
    1MOL      O  131   0.033  -1.684  -1.216
    1MOL      C  132   0.094  -1.800  -0.941
    1MOL      C  133   0.095  -1.877  -0.824
    1MOL      C  134   0.196  -1.858  -0.728
    1MOL      C  135   0.294  -1.762  -0.749
    1MOL      C  136   0.310  -1.710  -0.877
    1MOL      C  137   0.211  -1.731  -0.975
    1MOL      N  138   0.361  -1.696  -0.644
    1MOL      C  139   0.348  -1.719  -0.508
    1MOL      O  140   0.327  -1.828  -0.457
    1MOL      C  141   0.348  -1.598  -0.419
    1MOL      C  142   0.305  -1.476  -0.472
    1MOL      C  143   0.252  -1.377  -0.389
    1MOL      C  144   0.238  -1.401  -0.252
    1MOL      C  145   0.290  -1.518  -0.197
    1MOL      C  146   0.352  -1.614  -0.279
    1MOL      N  147   0.429  -1.715  -0.217
    1MOL      C  148   0.378  -1.803  -0.127
    1MOL      O  149   0.263  -1.832  -0.099
    1MOL      C  150   0.491  -1.857  -0.053
    1MOL      C  151   0.604  -1.787  -0.087
    1MOL      C  152   0.564  -1.695  -0.196
    1MOL      O  153   0.640  -1.616  -0.248
    1MOL      C  154   0.724  -1.808  -0.021
    1MOL      C  155   0.728  -1.908   0.078
    1MOL      C  156   0.615  -1.986   0.104
    1MOL      C  157   0.495  -1.960   0.037
    1MOL      C  158   0.848  -1.939   0.160
    1MOL      O  159   0.903  -2.048   0.148
    1MOL      N  160   0.874  -1.847   0.261
    1MOL      C  161   0.817  -1.867   0.391
    1MOL      C  162   0.780  -1.993   0.438
    1MOL      C  163   0.705  -2.004   0.556
    1MOL      C  164   0.663  -1.891   0.627
    1MOL      C  165   0.709  -1.766   0.586
    1MOL      C  166   0.788  -1.755   0.469
    1MOL      O  167   0.566  -1.918   0.722
    1MOL      C  168   0.520  -1.823   0.810
    1MOL      C  169   0.608  -1.757   0.897
    1MOL      C  170   0.558  -1.676   1.000
    1MOL      C  171   0.421  -1.662   1.018
    1MOL      C  172   0.332  -1.729   0.933
    1MOL      C  173   0.381  -1.808   0.829
    1MOL      O  174   0.290  -1.883   0.756
    1MOL      C  175   0.206  -1.818   0.667
    1MOL      C  176   0.100  -1.891   0.614
    1MOL      C  177   0.025  -1.841   0.506
    1MOL      C  178   0.061  -1.720   0.446
    1MOL      C  179   0.156  -1.640   0.509
    1MOL      C  180   0.228  -1.688   0.620
    1MOL      N  181   0.005  -1.690   0.320
    1MOL      C  182   0.065  -1.612   0.222
    1MOL      O  183   0.176  -1.559   0.225
    1MOL      C  184  -0.007  -1.604   0.093
    1MOL      C  185  -0.063  -1.483   0.054
    1MOL      C  186  -0.118  -1.470  -0.074
    1MOL      C  187  -0.105  -1.572  -0.171
    1MOL      C  188  -0.053  -1.694  -0.126
    1MOL      C  189  -0.006  -1.711   0.005
    1MOL      N  190  -0.122  -1.545  -0.311
    1MOL      C  191  -0.089  -1.632  -0.413
    1MOL      O  192  -0.075  -1.753  -0.416
    1MOL      C  193  -0.061  -1.548  -0.531
    1MOL      C  194  -0.087  -1.419  -0.498
    1MOL      C  195  -0.138  -1.418  -0.361
    1MOL      O  196  -0.177  -1.315  -0.312
    1MOL      C  197  -0.043  -1.313  -0.575
    1MOL      C  198   0.034  -1.337  -0.691
    1MOL      C  199   0.049  -1.471  -0.730
    1MOL      C  200   0.001  -1.577  -0.650
    1MOL      C  201   0.164  -1.301  -0.168
    1MOL      H  202  -0.285  -1.290  -1.165
    1MOL      H  203  -0.135  -1.459  -1.270
    1MOL      H  204  -0.327  -1.545  -0.816
    1MOL      H  205   0.010  -1.939  -0.797
    1MOL      H  206   0.185  -1.907  -0.631
    1MOL      H  207   0.392  -1.642  -0.900
    1MOL      H  208   0.221  -1.676  -1.068
    1MOL      H  209   0.420  -1.617  -0.673
    1MOL      H  210   0.304  -1.457  -0.579
    1MOL      H  211   0.217  -1.284  -0.432
    1MOL      H  212   0.287  -1.532  -0.089
    1MOL      H  213   0.811  -1.748  -0.044
    1MOL      H  214   0.620  -2.065   0.178
    1MOL      H  215   0.408  -2.021   0.054
    1MOL      H  216   0.871  -1.751   0.232
    1MOL      H  217   0.805  -2.084   0.384
    1MOL      H  218   0.670  -2.102   0.588
    1MOL      H  219   0.678  -1.674   0.634
    1MOL      H  220   0.816  -1.655   0.435
    1MOL      H  221   0.715  -1.773   0.888
    1MOL      H  222   0.627  -1.626   1.068
    1MOL      H  223   0.382  -1.602   1.100
    1MOL      H  224   0.225  -1.720   0.951
    1MOL      H  225   0.078  -1.990   0.653
    1MOL      H  226  -0.053  -1.904   0.463
    1MOL      H  227   0.183  -1.543   0.470
    1MOL      H  228   0.310  -1.628   0.658
    1MOL      H  229  -0.077  -1.743   0.292
    1MOL      H  230  -0.061  -1.398   0.122
    1MOL      H  231  -0.163  -1.374  -0.097
    1MOL      H  232  -0.043  -1.779  -0.193
    1MOL      H  233   0.036  -1.807   0.033
    1MOL      H  234  -0.056  -1.212  -0.539
    1MOL      H  235   0.109  -1.496  -0.818
    1MOL      H  236   0.022  -1.680  -0.674
    1MOL      H  237   0.057  -1.313  -0.183
    1MOL      H  238   0.187  -1.199  -0.197
    1MOL      H  239   0.186  -1.315  -0.062
    1MOL      C  240   0.109  -1.225  -0.754
    1MOL      C  241   0.130  -1.213  -0.894
    1MOL      C  242   0.205  -1.107  -0.950
    1MOL      C  243   0.260  -1.013  -0.863
    1MOL      C  244   0.242  -1.024  -0.728
    1MOL      C  245   0.168  -1.127  -0.672
    1MOL      C  246   0.312  -0.915  -0.662
    1MOL      O  247   0.307  -0.900  -0.540
    1MOL      N  248   0.372  -0.840  -0.761
    1MOL      C  249   0.342  -0.893  -0.885
    1MOL      O  250   0.375  -0.858  -0.998
    1MOL      C  251   0.450  -0.724  -0.737
    1MOL      C  252   0.463  -0.622  -0.832
    1MOL      C  253   0.534  -0.504  -0.804
    1MOL      C  254   0.598  -0.486  -0.682
    1MOL      C  255   0.588  -0.588  -0.587
    1MOL      C  256   0.514  -0.704  -0.614
    1MOL      N  257   0.666  -0.364  -0.658
    1MOL      C  258   0.752  -0.339  -0.553
    1MOL      O  259   0.807  -0.422  -0.482
    1MOL      C  260   0.762  -0.196  -0.516
    1MOL      C  261   0.654  -0.149  -0.441
    1MOL      C  262   0.649  -0.017  -0.398
    1MOL      C  263   0.753   0.071  -0.424
    1MOL      C  264   0.856   0.027  -0.505
    1MOL      C  265   0.863  -0.106  -0.552
    1MOL      N  266   0.972  -0.135  -0.636
    1MOL      C  267   1.080  -0.211  -0.595
    1MOL      O  268   1.092  -0.290  -0.503
    1MOL      C  269   1.194  -0.168  -0.676
    1MOL      C  270   1.150  -0.067  -0.761
    1MOL      C  271   1.009  -0.046  -0.735
    1MOL      O  272   0.946   0.042  -0.789
    1MOL      C  273   1.236   0.016  -0.831
    1MOL      C  274   1.372  -0.001  -0.805
    1MOL      C  275   1.419  -0.109  -0.726
    1MOL      C  276   1.329  -0.194  -0.661
    1MOL      C  277   1.464   0.112  -0.835
    1MOL      O  278   1.538   0.102  -0.932
    1MOL      N  279   1.467   0.221  -0.748
    1MOL      C  280   1.417   0.209  -0.616
    1MOL      C  281   1.279   0.215  -0.593
    1MOL      C  282   1.227   0.169  -0.472
    1MOL      C  283   1.312   0.117  -0.375
    1MOL      C  284   1.450   0.134  -0.388
    1MOL      C  285   1.503   0.179  -0.510
    1MOL      O  286   1.253   0.057  -0.265
    1MOL      C  287   1.285  -0.073  -0.229
    1MOL      C  288   1.378  -0.152  -0.299
    1MOL      C  289   1.412  -0.280  -0.256
    1MOL      C  290   1.354  -0.331  -0.142
    1MOL      C  291   1.260  -0.255  -0.071
    1MOL      C  292   1.221  -0.128  -0.115
    1MOL      O  293   1.119  -0.053  -0.058
    1MOL      C  294   1.079  -0.071   0.072
    1MOL      C  295   1.078   0.042   0.153
    1MOL      C  296   1.045   0.034   0.289
    1MOL      C  297   1.011  -0.088   0.347
    1MOL      C  298   1.001  -0.200   0.264
    1MOL      C  299   1.030  -0.190   0.126
    1MOL      N  300   0.981  -0.089   0.484
    1MOL      C  301   0.962  -0.200   0.566
    1MOL      O  302   0.993  -0.316   0.541
    1MOL      C  303   0.894  -0.168   0.695
    1MOL      C  304   0.938  -0.218   0.818
    1MOL      C  305   0.869  -0.184   0.936
    1MOL      C  306   0.751  -0.107   0.932
    1MOL      C  307   0.707  -0.064   0.806
    1MOL      C  308   0.779  -0.092   0.690
    1MOL      N  309   0.682  -0.062   1.048
    1MOL      C  310   0.739  -0.044   1.173
    1MOL      O  311   0.846  -0.080   1.218
    1MOL      C  312   0.648   0.043   1.248
    1MOL      C  313   0.537   0.065   1.169
    1MOL      C  314   0.555  -0.009   1.046
    1MOL      O  315   0.468  -0.013   0.960
    1MOL      C  316   0.440   0.157   1.200
    1MOL      C  317   0.456   0.234   1.317
    1MOL      C  318   0.566   0.207   1.402
    1MOL      C  319   0.663   0.111   1.368
    1MOL      C  320   0.757   0.208  -0.363
    1MOL      H  321   0.088  -1.287  -0.962
    1MOL      H  322   0.221  -1.098  -1.056
    1MOL      H  323   0.157  -1.127  -0.564
    1MOL      H  324   0.414  -0.630  -0.929
    1MOL      H  325   0.536  -0.426  -0.880
    1MOL      H  326   0.632  -0.578  -0.488
    1MOL      H  327   0.507  -0.777  -0.534
    1MOL      H  328   0.640  -0.286  -0.718
    1MOL      H  329   0.574  -0.218  -0.414
    1MOL      H  330   0.564   0.019  -0.341
    1MOL      H  331   0.934   0.098  -0.531
    1MOL      H  332   1.198   0.100  -0.888
    1MOL      H  333   1.526  -0.119  -0.707
    1MOL      H  334   1.362  -0.270  -0.591
    1MOL      H  335   1.557   0.267  -0.757
    1MOL      H  336   1.211   0.250  -0.670
    1MOL      H  337   1.120   0.170  -0.455
    1MOL      H  338   1.517   0.108  -0.307
    1MOL      H  339   1.611   0.181  -0.524
    1MOL      H  340   1.428  -0.116  -0.388
    1MOL      H  341   1.484  -0.339  -0.312
    1MOL      H  342   1.379  -0.431  -0.109
    1MOL      H  343   1.217  -0.302   0.016
    1MOL      H  344   1.102   0.138   0.109
    1MOL      H  345   1.048   0.125   0.348
    1MOL      H  346   0.967  -0.296   0.302
    1MOL      H  347   1.014  -0.277   0.063
    1MOL      H  348   0.976   0.001   0.529
    1MOL      H  349   1.026  -0.282   0.823
    1MOL      H  350   0.907  -0.221   1.031
    1MOL      H  351   0.618  -0.003   0.793
    1MOL      H  352   0.742  -0.055   0.595
    1MOL      H  353   0.358   0.174   1.131
    1MOL      H  354   0.580   0.265   1.492
    1MOL      H  355   0.751   0.096   1.430
    1MOL      H  356   0.782   0.284  -0.438
    1MOL      H  357   0.661   0.235  -0.319
    1MOL      H  358   0.833   0.210  -0.284
    1MOL      C  359   0.361   0.343   1.343
    1MOL      C  360   0.295   0.356   1.468
    1MOL      C  361   0.195   0.453   1.488
    1MOL      C  362   0.161   0.533   1.381
    1MOL      C  363   0.224   0.523   1.259
    1MOL      C  364   0.326   0.432   1.238
    1MOL      C  365   0.150   0.603   1.162
    1MOL      O  366   0.175   0.602   1.043
    1MOL      N  367   0.045   0.659   1.231
    1MOL      C  368   0.050   0.626   1.365
    1MOL      O  369  -0.017   0.663   1.460
    1MOL      C  370  -0.070   0.711   1.166
    1MOL      C  371  -0.064   0.783   1.046
    1MOL      C  372  -0.182   0.826   0.981
    1MOL      C  373  -0.307   0.791   1.032
    1MOL      C  374  -0.312   0.719   1.151
    1MOL      C  375  -0.196   0.682   1.219
    1MOL      N  376  -0.425   0.831   0.966
    1MOL      C  377  -0.545   0.767   0.983
    1MOL      O  378  -0.562   0.652   1.024
    1MOL      C  379  -0.667   0.846   0.962
    1MOL      C  380  -0.699   0.932   1.069
    1MOL      C  381  -0.829   0.980   1.086
    1MOL      C  382  -0.929   0.940   0.999
    1MOL      C  383  -0.896   0.854   0.893
    1MOL      C  384  -0.765   0.808   0.870
    1MOL      N  385  -0.734   0.735   0.751
    1MOL      C  386  -0.829   0.669   0.677
    1MOL      O  387  -0.941   0.629   0.706
    1MOL      C  388  -0.775   0.653   0.543
    1MOL      C  389  -0.647   0.706   0.540
    1MOL      C  390  -0.622   0.762   0.674
    1MOL      O  391  -0.524   0.831   0.698
    1MOL      C  392  -0.574   0.712   0.422
    1MOL      C  393  -0.637   0.665   0.306
    1MOL      C  394  -0.769   0.614   0.312
    1MOL      C  395  -0.839   0.606   0.431
    1MOL      C  396  -0.566   0.663   0.175
    1MOL      O  397  -0.444   0.650   0.174
    1MOL      N  398  -0.650   0.674   0.065
    1MOL      C  399  -0.620   0.649  -0.070
    1MOL      C  400  -0.717   0.684  -0.164
    1MOL      C  401  -0.692   0.672  -0.301
    1MOL      C  402  -0.572   0.616  -0.344
    1MOL      C  403  -0.479   0.572  -0.250
    1MOL      C  404  -0.502   0.589  -0.113
    1MOL      O  405  -0.535   0.606  -0.477
    1MOL      C  406  -0.633   0.582  -0.570
    1MOL      C  407  -0.727   0.480  -0.554
    1MOL      C  408  -0.818   0.452  -0.655
    1MOL      C  409  -0.814   0.524  -0.774
    1MOL      C  410  -0.720   0.626  -0.791
    1MOL      C  411  -0.631   0.657  -0.689
    1MOL      O  412  -0.530   0.747  -0.711
    1MOL      C  413  -0.561   0.881  -0.710
    1MOL      C  414  -0.637   0.945  -0.613
    1MOL      C  415  -0.637   1.086  -0.605
    1MOL      C  416  -0.561   1.163  -0.694
    1MOL      C  417  -0.496   1.097  -0.798
    1MOL      C  418  -0.494   0.958  -0.804
    1MOL      N  419  -0.531   1.301  -0.678
    1MOL      C  420  -0.552   1.377  -0.564
    1MOL      O  421  -0.638   1.355  -0.480
    1MOL      C  422  -0.449   1.484  -0.533
    1MOL      C  423  -0.449   1.536  -0.403
    1MOL      C  424  -0.334   1.599  -0.352
    1MOL      C  425  -0.217   1.606  -0.427
    1MOL      C  426  -0.225   1.573  -0.563
    1MOL      C  427  -0.342   1.516  -0.617
    1MOL      N  428  -0.091   1.622  -0.362
    1MOL      C  429  -0.076   1.673  -0.236
    1MOL      O  430  -0.147   1.747  -0.170
    1MOL      C  431   0.049   1.621  -0.184
    1MOL      C  432   0.109   1.544  -0.281
    1MOL      C  433   0.025   1.557  -0.401
    1MOL      O  434   0.058   1.513  -0.510
    1MOL      C  435   0.215   1.458  -0.251
    1MOL      C  436   0.256   1.448  -0.116
    1MOL      C  437   0.198   1.539  -0.023
    1MOL      C  438   0.097   1.628  -0.056
    1MOL      C  439  -1.071   0.983   1.022
    1MOL      H  440   0.316   0.285   1.548
    1MOL      H  441   0.140   0.458   1.582
    1MOL      H  442   0.373   0.427   1.140
    1MOL      H  443   0.032   0.806   1.000
    1MOL      H  444  -0.173   0.881   0.888
    1MOL      H  445  -0.407   0.690   1.197
    1MOL      H  446  -0.208   0.624   1.310
    1MOL      H  447  -0.418   0.890   0.884
    1MOL      H  448  -0.624   0.952   1.143
    1MOL      H  449  -0.851   1.044   1.172
    1MOL      H  450  -0.977   0.827   0.824
    1MOL      H  451  -0.474   0.754   0.420
    1MOL      H  452  -0.817   0.578   0.222
    1MOL      H  453  -0.941   0.568   0.435
    1MOL      H  454  -0.742   0.712   0.082
    1MOL      H  455  -0.812   0.726  -0.133
    1MOL      H  456  -0.767   0.707  -0.372
    1MOL      H  457  -0.387   0.527  -0.284
    1MOL      H  458  -0.426   0.558  -0.043
    1MOL      H  459  -0.728   0.423  -0.462
    1MOL      H  460  -0.893   0.374  -0.641
    1MOL      H  461  -0.883   0.500  -0.855
    1MOL      H  462  -0.715   0.680  -0.886
    1MOL      H  463  -0.691   0.888  -0.538
    1MOL      H  464  -0.690   1.133  -0.523
    1MOL      H  465  -0.439   1.153  -0.872
    1MOL      H  466  -0.433   0.909  -0.880
    1MOL      H  467  -0.453   1.328  -0.736
    1MOL      H  468  -0.532   1.517  -0.336
    1MOL      H  469  -0.337   1.626  -0.246
    1MOL      H  470  -0.138   1.583  -0.628
    1MOL      H  471  -0.338   1.485  -0.721
    1MOL      H  472   0.253   1.390  -0.326
    1MOL      H  473   0.226   1.532   0.083
    1MOL      H  474   0.049   1.691   0.018
    1MOL      H  475  -1.076   1.089   1.046
    1MOL      H  476  -1.115   0.925   1.104
    1MOL      H  477  -1.133   0.966   0.932
    1MOL      C  478   0.327   1.330  -0.063
    1MOL      C  479   0.257   1.259   0.039
    1MOL      C  480   0.301   1.138   0.090
    1MOL      C  481   0.420   1.092   0.040
    1MOL      C  482   0.498   1.158  -0.052
    1MOL      C  483   0.453   1.279  -0.107
    1MOL      C  484   0.615   1.066  -0.077
    1MOL      O  485   0.699   1.086  -0.163
    1MOL      N  486   0.602   0.959   0.008
    1MOL      C  487   0.475   0.960   0.058
    1MOL      O  488   0.400   0.868   0.086
    1MOL      C  489   0.670   0.834   0.011
    1MOL      C  490   0.669   0.744  -0.096
    1MOL      C  491   0.681   0.604  -0.073
    1MOL      C  492   0.694   0.554   0.056
    1MOL      C  493   0.719   0.647   0.159
    1MOL      C  494   0.704   0.784   0.137
    1MOL      N  495   0.675   0.420   0.097
    1MOL      C  496   0.620   0.310   0.029
    1MOL      O  497   0.591   0.307  -0.090
    1MOL      C  498   0.595   0.191   0.120
    1MOL      C  499   0.692   0.169   0.220
    1MOL      C  500   0.670   0.082   0.326
    1MOL      C  501   0.549   0.014   0.336
    1MOL      C  502   0.455   0.032   0.235
    1MOL      C  503   0.476   0.113   0.122
    1MOL      N  504   0.385   0.094   0.013
    1MOL      C  505   0.431   0.024  -0.096
    1MOL      O  506   0.544  -0.014  -0.121
    1MOL      C  507   0.314  -0.032  -0.167
    1MOL      C  508   0.206  -0.013  -0.085
    1MOL      C  509   0.252   0.061   0.033
    1MOL      O  510   0.179   0.071   0.130
    1MOL      C  511   0.085  -0.078  -0.108
    1MOL      C  512   0.071  -0.164  -0.220
    1MOL      C  513   0.181  -0.180  -0.306
    1MOL      C  514   0.303  -0.114  -0.279
    1MOL      C  515  -0.054  -0.247  -0.226
    1MOL      O  516  -0.114  -0.257  -0.120
    1MOL      N  517  -0.092  -0.310  -0.345
    1MOL      C  518  -0.215  -0.381  -0.363
    1MOL      C  519  -0.294  -0.430  -0.259
    1MOL      C  520  -0.425  -0.480  -0.282
    1MOL      C  521  -0.479  -0.486  -0.411
    1MOL      C  522  -0.394  -0.449  -0.516
    1MOL      C  523  -0.264  -0.398  -0.493
    1MOL      O  524  -0.613  -0.498  -0.444
    1MOL      C  525  -0.699  -0.593  -0.394
    1MOL      C  526  -0.673  -0.680  -0.288
    1MOL      C  527  -0.759  -0.784  -0.254
    1MOL      C  528  -0.877  -0.804  -0.324
    1MOL      C  529  -0.911  -0.714  -0.425
    1MOL      C  530  -0.825  -0.607  -0.456
    1MOL      O  531  -0.866  -0.517  -0.553
    1MOL      C  532  -0.981  -0.445  -0.528
    1MOL      C  533  -1.040  -0.383  -0.639
    1MOL      C  534  -1.144  -0.290  -0.623
    1MOL      C  535  -1.193  -0.259  -0.497
    1MOL      C  536  -1.145  -0.332  -0.388
    1MOL      C  537  -1.038  -0.422  -0.403
    1MOL      N  538  -1.282  -0.152  -0.468
    1MOL      C  539  -1.318  -0.050  -0.555
    1MOL      O  540  -1.306  -0.055  -0.678
    1MOL      C  541  -1.366   0.080  -0.495
    1MOL      C  542  -1.382   0.104  -0.359
    1MOL      C  543  -1.413   0.233  -0.311
    1MOL      C  544  -1.430   0.343  -0.398
    1MOL      C  545  -1.420   0.316  -0.535
    1MOL      C  546  -1.388   0.188  -0.582
    1MOL      N  547  -1.452   0.476  -0.348
    1MOL      C  548  -1.455   0.511  -0.215
    1MOL      O  549  -1.451   0.443  -0.113
    1MOL      C  550  -1.461   0.657  -0.208
    1MOL      C  551  -1.464   0.707  -0.336
    1MOL      C  552  -1.463   0.591  -0.426
    1MOL      O  553  -1.469   0.605  -0.547
    1MOL      C  554  -1.455   0.844  -0.363
    1MOL      C  555  -1.441   0.931  -0.253
    1MOL      C  556  -1.442   0.876  -0.122
    1MOL      C  557  -1.452   0.739  -0.098
    1MOL      C  558   0.519  -0.080   0.448
    1MOL      H  559   0.161   1.296   0.075
    1MOL      H  560   0.244   1.083   0.163
    1MOL      H  561   0.511   1.330  -0.182
    1MOL      H  562   0.646   0.778  -0.196
    1MOL      H  563   0.671   0.536  -0.157
    1MOL      H  564   0.736   0.613   0.261
    1MOL      H  565   0.707   0.851   0.224
    1MOL      H  566   0.680   0.408   0.197
    1MOL      H  567   0.788   0.221   0.215
    1MOL      H  568   0.747   0.069   0.401
    1MOL      H  569   0.363  -0.026   0.243
    1MOL      H  570   0.007  -0.070  -0.034
    1MOL      H  571   0.177  -0.249  -0.389
    1MOL      H  572   0.389  -0.135  -0.341
    1MOL      H  573  -0.043  -0.284  -0.429
    1MOL      H  574  -0.262  -0.423  -0.155
    1MOL      H  575  -0.485  -0.498  -0.194
    1MOL      H  576  -0.432  -0.454  -0.618
    1MOL      H  577  -0.206  -0.365  -0.578
    1MOL      H  578  -0.583  -0.670  -0.230
    1MOL      H  579  -0.732  -0.853  -0.174
    1MOL      H  580  -0.942  -0.887  -0.300
    1MOL      H  581  -1.004  -0.728  -0.479
    1MOL      H  582  -1.002  -0.404  -0.739
    1MOL      H  583  -1.181  -0.241  -0.713
    1MOL      H  584  -1.185  -0.317  -0.288
    1MOL      H  585  -0.998  -0.470  -0.314
    1MOL      H  586  -1.306  -0.142  -0.371
    1MOL      H  587  -1.370   0.026  -0.284
    1MOL      H  588  -1.424   0.243  -0.204
    1MOL      H  589  -1.434   0.394  -0.609
    1MOL      H  590  -1.377   0.174  -0.690
    1MOL      H  591  -1.451   0.880  -0.465
    1MOL      H  592  -1.430   0.943  -0.038
    1MOL      H  593  -1.446   0.699   0.003
    1MOL      H  594   0.518  -0.026   0.543
    1MOL      H  595   0.421  -0.128   0.437
    1MOL      H  596   0.593  -0.160   0.451
    1MOL      C  597  -1.411   1.075  -0.265
    1MOL      C  598  -1.513   1.173  -0.255
    1MOL      C  599  -1.484   1.308  -0.226
    1MOL      C  600  -1.351   1.343  -0.206
    1MOL      C  601  -1.251   1.251  -0.223
    1MOL      C  602  -1.277   1.119  -0.256
    1MOL      C  603  -1.128   1.310  -0.171
    1MOL      O  604  -1.026   1.244  -0.158
    1MOL      N  605  -1.159   1.436  -0.122
    1MOL      C  606  -1.293   1.462  -0.141
    1MOL      O  607  -1.362   1.555  -0.104
    1MOL      C  608  -1.072   1.502  -0.030
    1MOL      C  609  -0.933   1.500  -0.049
    1MOL      C  610  -0.845   1.550   0.048
    1MOL      C  611  -0.894   1.597   0.171
    1MOL      C  612  -1.033   1.603   0.189
    1MOL      C  613  -1.121   1.560   0.088
    1MOL      N  614  -0.802   1.638   0.270
    1MOL      C  615  -0.825   1.648   0.407
    1MOL      O  616  -0.907   1.580   0.469
    1MOL      C  617  -0.747   1.754   0.479
    1MOL      C  618  -0.720   1.871   0.405
    1MOL      C  619  -0.671   1.987   0.467
    1MOL      C  620  -0.653   1.989   0.605
    1MOL      C  621  -0.679   1.873   0.679
    1MOL      C  622  -0.723   1.753   0.619
    1MOL      N  623  -0.724   1.635   0.699
    1MOL      C  624  -0.647   1.526   0.665
    1MOL      O  625  -0.584   1.502   0.563
    1MOL      C  626  -0.632   1.443   0.785
    1MOL      C  627  -0.697   1.507   0.889
    1MOL      C  628  -0.751   1.632   0.835
    1MOL      O  629  -0.803   1.716   0.908
    1MOL      C  630  -0.694   1.456   1.019
    1MOL      C  631  -0.620   1.338   1.042
    1MOL      C  632  -0.554   1.274   0.934
    1MOL      C  633  -0.559   1.328   0.805
    1MOL      C  634  -0.614   1.277   1.178
    1MOL      O  635  -0.714   1.282   1.250
    1MOL      N  636  -0.493   1.219   1.212
    1MOL      C  637  -0.467   1.118   1.307
    1MOL      C  638  -0.566   1.051   1.380
    1MOL      C  639  -0.535   0.933   1.451
    1MOL      C  640  -0.404   0.886   1.457
    1MOL      C  641  -0.303   0.961   1.395
    1MOL      C  642  -0.335   1.074   1.319
    1MOL      O  643  -0.361   0.764   1.506
    1MOL      C  644  -0.432   0.694   1.601
    1MOL      C  645  -0.486   0.758   1.714
    1MOL      C  646  -0.550   0.683   1.812
    1MOL      C  647  -0.559   0.544   1.801
    1MOL      C  648  -0.503   0.479   1.691
    1MOL      C  649  -0.437   0.552   1.591
    1MOL      O  650  -0.383   0.494   1.477
    1MOL      C  651  -0.333   0.365   1.485
    1MOL      C  652  -0.196   0.347   1.505
    1MOL      C  653  -0.139   0.219   1.496
    1MOL      C  654  -0.218   0.106   1.469
    1MOL      C  655  -0.357   0.126   1.454
    1MOL      C  656  -0.413   0.255   1.457
    1MOL      N  657  -0.166  -0.024   1.446
    1MOL      C  658  -0.035  -0.053   1.410
    1MOL      O  659   0.063   0.020   1.422
    1MOL      C  660  -0.017  -0.181   1.336
    1MOL      C  661   0.031  -0.173   1.206
    1MOL      C  662   0.041  -0.289   1.127
    1MOL      C  663   0.005  -0.416   1.176
    1MOL      C  664  -0.040  -0.423   1.308
    1MOL      C  665  -0.049  -0.307   1.389
    1MOL      N  666   0.016  -0.532   1.092
    1MOL      C  667   0.096  -0.534   0.980
    1MOL      O  668   0.176  -0.453   0.936
    1MOL      C  669   0.076  -0.661   0.915
    1MOL      C  670  -0.008  -0.740   0.991
    1MOL      C  671  -0.048  -0.655   1.106
    1MOL      O  672  -0.127  -0.692   1.191
    1MOL      C  673  -0.039  -0.871   0.950
    1MOL      C  674   0.017  -0.919   0.829
    1MOL      C  675   0.097  -0.828   0.753
    1MOL      C  676   0.130  -0.701   0.796
    1MOL      C  677  -0.598   2.112   0.672
    1MOL      H  678  -1.618   1.142  -0.260
    1MOL      H  679  -1.564   1.380  -0.208
    1MOL      H  680  -1.195   1.047  -0.258
    1MOL      H  681  -0.890   1.459  -0.140
    1MOL      H  682  -0.738   1.546   0.029
    1MOL      H  683  -1.074   1.642   0.282
    1MOL      H  684  -1.227   1.565   0.108
    1MOL      H  685  -0.704   1.647   0.240
    1MOL      H  686  -0.741   1.877   0.298
    1MOL      H  687  -0.651   2.075   0.406
    1MOL      H  688  -0.660   1.877   0.786
    1MOL      H  689  -0.745   1.506   1.100
    1MOL      H  690  -0.500   1.181   0.949
    1MOL      H  691  -0.504   1.281   0.724
    1MOL      H  692  -0.413   1.244   1.154
    1MOL      H  693  -0.670   1.082   1.375
    1MOL      H  694  -0.617   0.877   1.496
    1MOL      H  695  -0.200   0.926   1.399
    1MOL      H  696  -0.254   1.124   1.267
    1MOL      H  697  -0.476   0.865   1.726
    1MOL      H  698  -0.593   0.733   1.899
    1MOL      H  699  -0.610   0.486   1.878
    1MOL      H  700  -0.512   0.372   1.684
    1MOL      H  701  -0.133   0.433   1.525
    1MOL      H  702  -0.032   0.210   1.511
    1MOL      H  703  -0.423   0.041   1.434
    1MOL      H  704  -0.519   0.268   1.436
    1MOL      H  705  -0.234  -0.099   1.434
    1MOL      H  706   0.057  -0.077   1.163
    1MOL      H  707   0.076  -0.274   1.025
    1MOL      H  708  -0.067  -0.519   1.353
    1MOL      H  709  -0.083  -0.316   1.492
    1MOL      H  710  -0.104  -0.933   1.011
    1MOL      H  711   0.135  -0.856   0.655
    1MOL      H  712   0.193  -0.636   0.736
    1MOL      H  713  -0.645   2.126   0.770
    1MOL      H  714  -0.490   2.103   0.685
    1MOL      H  715  -0.618   2.202   0.613
    1MOL      C  716  -0.003  -1.054   0.767
    1MOL      C  717   0.106  -1.105   0.689
    1MOL      C  718   0.090  -1.204   0.593
    1MOL      C  719  -0.036  -1.259   0.584
    1MOL      C  720  -0.137  -1.230   0.672
    1MOL      C  721  -0.125  -1.125   0.764
    1MOL      C  722  -0.247  -1.324   0.641
    1MOL      O  723  -0.347  -1.335   0.709
    1MOL      N  724  -0.212  -1.389   0.524
    1MOL      C  725  -0.086  -1.351   0.484
    1MOL      O  726  -0.019  -1.382   0.387
    1MOL      C  727  -0.279  -1.496   0.458
    1MOL      C  728  -0.283  -1.498   0.318
    1MOL      C  729  -0.320  -1.614   0.247
    1MOL      C  730  -0.350  -1.731   0.315
    1MOL      C  731  -0.359  -1.725   0.455
    1MOL      C  732  -0.327  -1.608   0.526
    1MOL      N  733  -0.369  -1.856   0.249
    1MOL      C  734  -0.354  -1.884   0.113
    1MOL      O  735  -0.301  -1.810   0.030
    1MOL      C  736  -0.416  -2.012   0.065
    1MOL      C  737  -0.539  -2.046   0.127
    1MOL      C  738  -0.618  -2.152   0.083
    1MOL      C  739  -0.578  -2.227  -0.026
    1MOL      C  740  -0.458  -2.192  -0.091
    1MOL      C  741  -0.374  -2.085  -0.049
    1MOL      N  742  -0.256  -2.064  -0.126
    1MOL      C  743  -0.251  -2.087  -0.263
    1MOL      O  744  -0.341  -2.105  -0.344
    1MOL      C  745  -0.111  -2.091  -0.302
    1MOL      C  746  -0.033  -2.073  -0.190
    1MOL      C  747  -0.128  -2.053  -0.076
    1MOL      O  748  -0.092  -2.039   0.040
    1MOL      C  749   0.107  -2.080  -0.198
    1MOL      C  750   0.167  -2.105  -0.325
    1MOL      C  751   0.082  -2.122  -0.437
    1MOL      C  752  -0.057  -2.115  -0.427
    1MOL      C  753   0.315  -2.112  -0.355
    1MOL      O  754   0.352  -2.112  -0.471
    1MOL      N  755   0.404  -2.129  -0.249
    1MOL      C  756   0.545  -2.112  -0.257
    1MOL      C  757   0.626  -2.173  -0.161
    1MOL      C  758   0.763  -2.144  -0.152
    1MOL      C  759   0.821  -2.049  -0.234
    1MOL      C  760   0.744  -1.991  -0.334
    1MOL      C  761   0.607  -2.024  -0.347
    1MOL      O  762   0.949  -2.010  -0.197
    1MOL      C  763   1.027  -1.938  -0.284
    1MOL      C  764   1.079  -2.002  -0.397
    1MOL      C  765   1.166  -1.934  -0.482
    1MOL      C  766   1.201  -1.802  -0.455
    1MOL      C  767   1.153  -1.739  -0.340
    1MOL      C  768   1.069  -1.807  -0.251
    1MOL      O  769   1.024  -1.754  -0.132
    1MOL      C  770   1.073  -1.633  -0.089
    1MOL      C  771   0.992  -1.520  -0.098
    1MOL      C  772   1.039  -1.396  -0.053
    1MOL      C  773   1.167  -1.383   0.002
    1MOL      C  774   1.245  -1.498   0.016
    1MOL      C  775   1.198  -1.623  -0.029
    1MOL      N  776   1.211  -1.252   0.039
    1MOL      C  777   1.340  -1.216   0.071
    1MOL      O  778   1.439  -1.291   0.075
    1MOL      C  779   1.366  -1.070   0.092
    1MOL      C  780   1.486  -1.016   0.044
    1MOL      C  781   1.518  -0.881   0.066
    1MOL      C  782   1.433  -0.794   0.136
    1MOL      C  783   1.312  -0.851   0.183
    1MOL      C  784   1.279  -0.987   0.163
    1MOL      N  785   1.467  -0.657   0.160
    1MOL      C  786   1.592  -0.602   0.138
    1MOL      O  787   1.697  -0.650   0.097
    1MOL      C  788   1.585  -0.460   0.172
    1MOL      C  789   1.457  -0.433   0.213
    1MOL      C  790   1.381  -0.559   0.207
    1MOL      O  791   1.263  -0.563   0.236
    1MOL      C  792   1.416  -0.303   0.244
    1MOL      C  793   1.510  -0.198   0.230
    1MOL      C  794   1.643  -0.230   0.192
    1MOL      C  795   1.681  -0.362   0.163
    1MOL      C  796  -0.664  -2.337  -0.081
    1MOL      H  797   0.205  -1.060   0.696
    1MOL      H  798   0.170  -1.233   0.526
    1MOL      H  799  -0.210  -1.095   0.824
    1MOL      H  800  -0.254  -1.410   0.261
    1MOL      H  801  -0.321  -1.609   0.138
    1MOL      H  802  -0.389  -1.813   0.512
    1MOL      H  803  -0.329  -1.609   0.635
    1MOL      H  804  -0.396  -1.933   0.309
    1MOL      H  805  -0.580  -1.984   0.207
    1MOL      H  806  -0.713  -2.173   0.133
    1MOL      H  807  -0.430  -2.253  -0.177
    1MOL      H  808   0.167  -2.064  -0.109
    1MOL      H  809   0.125  -2.139  -0.536
    1MOL      H  810  -0.121  -2.128  -0.514
    1MOL      H  811   0.367  -2.170  -0.164
    1MOL      H  812   0.585  -2.240  -0.087
    1MOL      H  813   0.822  -2.190  -0.072
    1MOL      H  814   0.785  -1.915  -0.399
    1MOL      H  815   0.548  -1.973  -0.422
    1MOL      H  816   1.053  -2.106  -0.417
    1MOL      H  817   1.206  -1.985  -0.570
    1MOL      H  818   1.268  -1.749  -0.522
    1MOL      H  819   1.184  -1.637  -0.321
    1MOL      H  820   0.894  -1.528  -0.144
    1MOL      H  821   0.973  -1.310  -0.064
    1MOL      H  822   1.344  -1.495   0.061
    1MOL      H  823   1.261  -1.711  -0.017
    1MOL      H  824   1.144  -1.177   0.024
    1MOL      H  825   1.555  -1.079  -0.011
    1MOL      H  826   1.612  -0.847   0.024
    1MOL      H  827   1.242  -0.791   0.242
    1MOL      H  828   1.188  -1.026   0.206
    1MOL      H  829   1.313  -0.284   0.271
    1MOL      H  830   1.716  -0.150   0.181
    1MOL      H  831   1.783  -0.385   0.131
    1MOL      H  832  -0.732  -2.376  -0.004
    1MOL      H  833  -0.723  -2.302  -0.166
    1MOL      H  834  -0.601  -2.421  -0.113
    1MOL      C  835   1.468  -0.057   0.239
    1MOL      C  836   1.422   0.002   0.360
    1MOL      C  837   1.372   0.133   0.365
    1MOL      C  838   1.367   0.205   0.246
    1MOL      C  839   1.416   0.150   0.130
    1MOL      C  840   1.468   0.022   0.123
    1MOL      C  841   1.390   0.244   0.022
    1MOL      O  842   1.444   0.232  -0.086
    1MOL      N  843   1.307   0.342   0.073
    1MOL      C  844   1.299   0.331   0.211
    1MOL      O  845   1.242   0.400   0.294
    1MOL      C  846   1.234   0.434  -0.009
    1MOL      C  847   1.208   0.398  -0.142
    1MOL      C  848   1.138   0.482  -0.229
    1MOL      C  849   1.091   0.606  -0.188
    1MOL      C  850   1.112   0.642  -0.054
    1MOL      C  851   1.180   0.555   0.036
    1MOL      N  852   1.035   0.700  -0.279
    1MOL      C  853   1.009   0.672  -0.413
    1MOL      O  854   0.989   0.562  -0.463
    1MOL      C  855   1.039   0.783  -0.507
    1MOL      C  856   1.169   0.770  -0.562
    1MOL      C  857   1.223   0.866  -0.647
    1MOL      C  858   1.149   0.979  -0.677
    1MOL      C  859   1.019   0.991  -0.625
    1MOL      C  860   0.959   0.895  -0.540
    1MOL      N  861   0.824   0.916  -0.499
    1MOL      C  862   0.766   1.042  -0.488
    1MOL      O  863   0.812   1.154  -0.502
    1MOL      C  864   0.626   1.021  -0.452
    1MOL      C  865   0.603   0.886  -0.449
    1MOL      C  866   0.730   0.818  -0.476
    1MOL      O  867   0.736   0.697  -0.475
    1MOL      C  868   0.479   0.835  -0.417
    1MOL      C  869   0.380   0.924  -0.377
    1MOL      C  870   0.405   1.063  -0.376
    1MOL      C  871   0.528   1.113  -0.419
    1MOL      C  872   0.247   0.871  -0.338
    1MOL      O  873   0.177   0.826  -0.427
    1MOL      N  874   0.213   0.887  -0.205
    1MOL      C  875   0.120   0.806  -0.136
    1MOL      C  876   0.083   0.682  -0.184
    1MOL      C  877   0.004   0.596  -0.106
    1MOL      C  878  -0.050   0.636   0.016
    1MOL      C  879  -0.018   0.765   0.061
    1MOL      C  880   0.070   0.847  -0.012
    1MOL      O  881  -0.131   0.561   0.100
    1MOL      C  882  -0.147   0.426   0.074
    1MOL      C  883  -0.198   0.384  -0.050
    1MOL      C  884  -0.199   0.250  -0.084
    1MOL      C  885  -0.152   0.156   0.007
    1MOL      C  886  -0.109   0.196   0.134
    1MOL      C  887  -0.116   0.331   0.172
    1MOL      O  888  -0.091   0.373   0.301
    1MOL      C  889  -0.122   0.290   0.406
    1MOL      C  890  -0.019   0.220   0.470
    1MOL      C  891  -0.047   0.145   0.586
    1MOL      C  892  -0.177   0.137   0.638
    1MOL      C  893  -0.279   0.206   0.571
    1MOL      C  894  -0.251   0.283   0.457
    1MOL      N  895  -0.197   0.059   0.756
    1MOL      C  896  -0.313   0.039   0.826
    1MOL      O  897  -0.423   0.093   0.810
    1MOL      C  898  -0.308  -0.067   0.929
    1MOL      C  899  -0.324  -0.200   0.889
    1MOL      C  900  -0.352  -0.301   0.981
    1MOL      C  901  -0.364  -0.271   1.117
    1MOL      C  902  -0.341  -0.138   1.157
    1MOL      C  903  -0.315  -0.036   1.064
    1MOL      N  904  -0.407  -0.371   1.209
    1MOL      C  905  -0.385  -0.370   1.345
    1MOL      O  906  -0.328  -0.288   1.415
    1MOL      C  907  -0.462  -0.480   1.402
    1MOL      C  908  -0.548  -0.523   1.304
    1MOL      C  909  -0.506  -0.463   1.178
    1MOL      O  910  -0.562  -0.486   1.072
    1MOL      C  911  -0.674  -0.571   1.338
    1MOL      C  912  -0.709  -0.566   1.475
    1MOL      C  913  -0.606  -0.561   1.572
    1MOL      C  914  -0.480  -0.511   1.536
    1MOL      C  915   1.204   1.084  -0.769
    1MOL      H  916   1.422  -0.058   0.452
    1MOL      H  917   1.332   0.175   0.457
    1MOL      H  918   1.499  -0.018   0.027
    1MOL      H  919   1.241   0.303  -0.182
    1MOL      H  920   1.125   0.446  -0.331
    1MOL      H  921   1.075   0.737  -0.016
    1MOL      H  922   1.193   0.587   0.139
    1MOL      H  923   1.032   0.796  -0.248
    1MOL      H  924   1.229   0.682  -0.537
    1MOL      H  925   1.322   0.851  -0.688
    1MOL      H  926   0.961   1.078  -0.658
    1MOL      H  927   0.461   0.728  -0.420
    1MOL      H  928   0.328   1.132  -0.343
    1MOL      H  929   0.549   1.219  -0.420
    1MOL      H  930   0.262   0.955  -0.149
    1MOL      H  931   0.119   0.643  -0.278
    1MOL      H  932  -0.012   0.497  -0.148
    1MOL      H  933  -0.060   0.799   0.155
    1MOL      H  934   0.096   0.943   0.030
    1MOL      H  935  -0.231   0.457  -0.124
    1MOL      H  936  -0.235   0.219  -0.182
    1MOL      H  937  -0.158   0.051  -0.017
    1MOL      H  938  -0.074   0.121   0.204
    1MOL      H  939   0.082   0.225   0.431
    1MOL      H  940   0.035   0.092   0.633
    1MOL      H  941  -0.382   0.204   0.606
    1MOL      H  942  -0.332   0.341   0.411
    1MOL      H  943  -0.113   0.015   0.792
    1MOL      H  944  -0.326  -0.225   0.783
    1MOL      H  945  -0.369  -0.402   0.944
    1MOL      H  946  -0.356  -0.109   1.260
    1MOL      H  947  -0.308   0.067   1.098
    1MOL      H  948  -0.750  -0.576   1.260
    1MOL      H  949  -0.631  -0.565   1.678
    1MOL      H  950  -0.409  -0.480   1.611
    1MOL      H  951   1.314   1.088  -0.763
    1MOL      H  952   1.167   1.184  -0.743
    1MOL      H  953   1.176   1.061  -0.872
    1MOL      C  954  -0.834  -0.488   1.504
    1MOL      C  955  -0.960  -0.522   1.449
    1MOL      C  956  -1.051  -0.421   1.414
    1MOL      C  957  -1.012  -0.289   1.432
    1MOL      C  958  -0.896  -0.257   1.498
    1MOL      C  959  -0.810  -0.354   1.544
    1MOL      C  960  -0.852  -0.125   1.454
    1MOL      O  961  -0.753  -0.071   1.500
    1MOL      N  962  -0.935  -0.091   1.349
    1MOL      C  963  -1.046  -0.173   1.350
    1MOL      O  964  -1.154  -0.165   1.293
    1MOL      C  965  -0.885  -0.029   1.230
    1MOL      C  966  -0.753   0.017   1.218
    1MOL      C  967  -0.694   0.043   1.092
    1MOL      C  968  -0.768   0.027   0.975
    1MOL      C  969  -0.902  -0.006   0.988
    1MOL      C  970  -0.960  -0.032   1.112
    1MOL      N  971  -0.704   0.035   0.849
    1MOL      C  972  -0.766   0.011   0.727
    1MOL      O  973  -0.879   0.046   0.698
    1MOL      C  974  -0.691  -0.077   0.633
    1MOL      C  975  -0.602  -0.170   0.690
    1MOL      C  976  -0.541  -0.268   0.614
    1MOL      C  977  -0.570  -0.278   0.479
    1MOL      C  978  -0.667  -0.194   0.423
    1MOL      C  979  -0.727  -0.091   0.497
    1MOL      N  980  -0.820  -0.009   0.429
    1MOL      C  981  -0.920  -0.058   0.347
    1MOL      O  982  -0.957  -0.172   0.328
    1MOL      C  983  -0.974   0.056   0.274
    1MOL      C  984  -0.895   0.165   0.302
    1MOL      C  985  -0.798   0.124   0.404
    1MOL      O  986  -0.712   0.199   0.448
    1MOL      C  987  -0.910   0.284   0.234
    1MOL      C  988  -1.014   0.294   0.139
    1MOL      C  989  -1.103   0.186   0.120
    1MOL      C  990  -1.081   0.064   0.186
    1MOL      C  991  -1.027   0.418   0.056
    1MOL      O  992  -1.016   0.527   0.111
    1MOL      N  993  -1.047   0.395  -0.080
    1MOL      C  994  -1.067   0.492  -0.181
    1MOL      C  995  -1.075   0.449  -0.314
    1MOL      C  996  -1.102   0.538  -0.420
    1MOL      C  997  -1.122   0.674  -0.393
    1MOL      C  998  -1.110   0.717  -0.261
    1MOL      C  999  -1.083   0.628  -0.156
    1MOL      O 1000  -1.173   0.767  -0.481
    1MOL      C 1001  -1.113   0.785  -0.604
    1MOL      C 1002  -1.146   0.700  -0.709
    1MOL      C 1003  -1.091   0.721  -0.836
    1MOL      C 1004  -1.001   0.826  -0.855
    1MOL      C 1005  -0.971   0.913  -0.750
    1MOL      C 1006  -1.034   0.899  -0.627
    1MOL      O 1007  -1.020   0.989  -0.524
    1MOL      C 1008  -1.010   1.125  -0.548
    1MOL      C 1009  -0.950   1.198  -0.446
    1MOL      C 1010  -0.931   1.336  -0.457
    1MOL      C 1011  -0.967   1.404  -0.573
    1MOL      C 1012  -1.031   1.332  -0.674
    1MOL      C 1013  -1.057   1.194  -0.659
    1MOL      N 1014  -0.928   1.540  -0.594
    1MOL      C 1015  -0.885   1.624  -0.492
    1MOL      O 1016  -0.934   1.622  -0.379
    1MOL      C 1017  -0.772   1.719  -0.519
    1MOL      C 1018  -0.698   1.721  -0.638
    1MOL      C 1019  -0.578   1.795  -0.646
    1MOL      C 1020  -0.525   1.866  -0.536
    1MOL      C 1021  -0.606   1.871  -0.422
    1MOL      C 1022  -0.727   1.799  -0.414
    1MOL      N 1023  -0.391   1.917  -0.537
    1MOL      C 1024  -0.307   1.919  -0.646
    1MOL      O 1025  -0.327   1.899  -0.765
    1MOL      C 1026  -0.172   1.946  -0.597
    1MOL      C 1027  -0.178   1.962  -0.461
    1MOL      C 1028  -0.320   1.953  -0.423
    1MOL      O 1029  -0.356   1.975  -0.309
    1MOL      C 1030  -0.063   1.967  -0.381
    1MOL      C 1031   0.064   1.951  -0.441
    1MOL      C 1032   0.066   1.949  -0.584
    1MOL      C 1033  -0.050   1.945  -0.662
    1MOL      C 1034  -0.499  -0.377   0.394
    1MOL      H 1035  -0.980  -0.624   1.418
    1MOL      H 1036  -1.140  -0.444   1.356
    1MOL      H 1037  -0.712  -0.322   1.579
    1MOL      H 1038  -0.689   0.028   1.305
    1MOL      H 1039  -0.589   0.073   1.089
    1MOL      H 1040  -0.965  -0.016   0.901
    1MOL      H 1041  -1.065  -0.062   1.111
    1MOL      H 1042  -0.602   0.043   0.848
    1MOL      H 1043  -0.584  -0.170   0.797
    1MOL      H 1044  -0.473  -0.339   0.661
    1MOL      H 1045  -0.696  -0.211   0.320
    1MOL      H 1046  -0.839   0.364   0.250
    1MOL      H 1047  -1.186   0.195   0.052
    1MOL      H 1048  -1.144  -0.023   0.168
    1MOL      H 1049  -1.045   0.299  -0.109
    1MOL      H 1050  -1.063   0.343  -0.338
    1MOL      H 1051  -1.113   0.499  -0.520
    1MOL      H 1052  -1.128   0.822  -0.239
    1MOL      H 1053  -1.080   0.668  -0.055
    1MOL      H 1054  -1.217   0.618  -0.695
    1MOL      H 1055  -1.117   0.656  -0.918
    1MOL      H 1056  -0.954   0.840  -0.952
    1MOL      H 1057  -0.900   0.994  -0.768
    1MOL      H 1058  -0.912   1.147  -0.357
    1MOL      H 1059  -0.877   1.386  -0.377
    1MOL      H 1060  -1.063   1.382  -0.766
    1MOL      H 1061  -1.111   1.143  -0.739
    1MOL      H 1062  -0.919   1.569  -0.690
    1MOL      H 1063  -0.726   1.660  -0.723
    1MOL      H 1064  -0.522   1.785  -0.739
    1MOL      H 1065  -0.576   1.926  -0.333
    1MOL      H 1066  -0.782   1.801  -0.319
    1MOL      H 1067  -0.077   1.970  -0.273
    1MOL      H 1068   0.161   1.945  -0.637
    1MOL      H 1069  -0.045   1.934  -0.770
    1MOL      H 1070  -0.573  -0.445   0.351
    1MOL      H 1071  -0.426  -0.436   0.451
    1MOL      H 1072  -0.445  -0.327   0.314
    1MOL      C 1073   0.188   1.920  -0.360
    1MOL      C 1074   0.296   1.849  -0.420
    1MOL      C 1075   0.404   1.797  -0.347
    1MOL      C 1076   0.403   1.814  -0.211
    1MOL      C 1077   0.304   1.886  -0.149
    1MOL      C 1078   0.197   1.942  -0.221
    1MOL      C 1079   0.321   1.866  -0.004
    1MOL      O 1080   0.244   1.917   0.076
    1MOL      N 1081   0.425   1.775   0.014
    1MOL      C 1082   0.483   1.747  -0.109
    1MOL      O 1083   0.576   1.675  -0.139
    1MOL      C 1084   0.443   1.695   0.132
    1MOL      C 1085   0.513   1.573   0.128
    1MOL      C 1086   0.500   1.475   0.229
    1MOL      C 1087   0.421   1.499   0.341
    1MOL      C 1088   0.365   1.627   0.355
    1MOL      C 1089   0.375   1.723   0.252
    1MOL      N 1090   0.393   1.402   0.441
    1MOL      C 1091   0.419   1.265   0.439
    1MOL      O 1092   0.460   1.203   0.342
    1MOL      C 1093   0.391   1.194   0.570
    1MOL      C 1094   0.421   1.268   0.687
    1MOL      C 1095   0.382   1.227   0.814
    1MOL      C 1096   0.311   1.108   0.829
    1MOL      C 1097   0.284   1.032   0.714
    1MOL      C 1098   0.326   1.070   0.584
    1MOL      N 1099   0.296   0.977   0.480
    1MOL      C 1100   0.175   0.909   0.479
    1MOL      O 1101   0.068   0.941   0.526
    1MOL      C 1102   0.195   0.787   0.401
    1MOL      C 1103   0.325   0.784   0.357
    1MOL      C 1104   0.391   0.906   0.409
    1MOL      O 1105   0.509   0.930   0.390
    1MOL      C 1106   0.371   0.681   0.275
    1MOL      C 1107   0.279   0.584   0.234
    1MOL      C 1108   0.150   0.584   0.290
    1MOL      C 1109   0.105   0.686   0.374
    1MOL      C 1110   0.302   0.481   0.128
    1MOL      O 1111   0.278   0.364   0.157
    1MOL      N 1112   0.340   0.528   0.004
    1MOL      C 1113   0.321   0.463  -0.122
    1MOL      C 1114   0.382   0.516  -0.236
    1MOL      C 1115   0.360   0.463  -0.364
    1MOL      C 1116   0.274   0.356  -0.384
    1MOL      C 1117   0.209   0.304  -0.271
    1MOL      C 1118   0.235   0.355  -0.141
    1MOL      O 1119   0.237   0.307  -0.508
    1MOL      C 1120   0.332   0.286  -0.608
    1MOL      C 1121   0.466   0.260  -0.576
    1MOL      C 1122   0.560   0.237  -0.676
    1MOL      C 1123   0.521   0.238  -0.809
    1MOL      C 1124   0.388   0.263  -0.844
    1MOL      C 1125   0.291   0.281  -0.744
    1MOL      O 1126   0.157   0.299  -0.773
    1MOL      C 1127   0.101   0.267  -0.896
    1MOL      C 1128   0.128   0.152  -0.972
    1MOL      C 1129   0.052   0.121  -1.087
    1MOL      C 1130  -0.051   0.204  -1.128
    1MOL      C 1131  -0.071   0.323  -1.057
    1MOL      C 1132   0.001   0.352  -0.940
    1MOL      N 1133  -0.149   0.174  -1.227
    1MOL      C 1134  -0.172   0.051  -1.289
    1MOL      O 1135  -0.090  -0.038  -1.307
    1MOL      C 1136  -0.317   0.021  -1.319
    1MOL      C 1137  -0.361  -0.109  -1.294
    1MOL      C 1138  -0.493  -0.130  -1.255
    1MOL      C 1139  -0.581  -0.022  -1.236
    1MOL      C 1140  -0.544   0.099  -1.296
    1MOL      C 1141  -0.412   0.121  -1.339
    1MOL      N 1142  -0.685  -0.029  -1.138
    1MOL      C 1143  -0.723  -0.145  -1.074
    1MOL      O 1144  -0.716  -0.262  -1.108
    1MOL      C 1145  -0.775  -0.107  -0.944
    1MOL      C 1146  -0.776   0.030  -0.934
    1MOL      C 1147  -0.727   0.081  -1.063
    1MOL      O 1148  -0.725   0.201  -1.086
    1MOL      C 1149  -0.799   0.097  -0.814
    1MOL      C 1150  -0.821   0.020  -0.698
    1MOL      C 1151  -0.823  -0.122  -0.712
    1MOL      C 1152  -0.801  -0.187  -0.835
    1MOL      C 1153   0.258   1.064   0.962
    1MOL      H 1154   0.295   1.824  -0.527
    1MOL      H 1155   0.481   1.737  -0.395
    1MOL      H 1156   0.118   1.992  -0.165
    1MOL      H 1157   0.573   1.544   0.042
    1MOL      H 1158   0.550   1.380   0.215
    1MOL      H 1159   0.308   1.653   0.444
    1MOL      H 1160   0.325   1.818   0.267
    1MOL      H 1161   0.340   1.437   0.520
    1MOL      H 1162   0.476   1.362   0.680
    1MOL      H 1163   0.405   1.288   0.900
    1MOL      H 1164   0.229   0.939   0.728
    1MOL      H 1165   0.472   0.681   0.239
    1MOL      H 1166   0.082   0.506   0.259
    1MOL      H 1167   0.004   0.687   0.411
    1MOL      H 1168   0.377   0.623  -0.000
    1MOL      H 1169   0.449   0.601  -0.226
    1MOL      H 1170   0.411   0.508  -0.449
    1MOL      H 1171   0.133   0.227  -0.283
    1MOL      H 1172   0.177   0.315  -0.058
    1MOL      H 1173   0.499   0.257  -0.473
    1MOL      H 1174   0.664   0.219  -0.652
    1MOL      H 1175   0.595   0.218  -0.886
    1MOL      H 1176   0.363   0.266  -0.949
    1MOL      H 1177   0.206   0.084  -0.942
    1MOL      H 1178   0.074   0.028  -1.139
    1MOL      H 1179  -0.149   0.392  -1.088
    1MOL      H 1180  -0.024   0.440  -0.883
    1MOL      H 1181  -0.232   0.232  -1.216
    1MOL      H 1182  -0.289  -0.191  -1.286
    1MOL      H 1183  -0.518  -0.231  -1.220
    1MOL      H 1184  -0.611   0.185  -1.294
    1MOL      H 1185  -0.383   0.221  -1.369
    1MOL      H 1186  -0.793   0.205  -0.810
    1MOL      H 1187  -0.837  -0.184  -0.624
    1MOL      H 1188  -0.797  -0.295  -0.842
    1MOL      H 1189   0.311   1.112   1.044
    1MOL      H 1190   0.151   1.089   0.970
    1MOL      H 1191   0.269   0.956   0.974
    1MOL      C 1192  -0.837   0.074  -0.561
    1MOL      C 1193  -0.958   0.045  -0.492
    1MOL      C 1194  -0.969   0.058  -0.354
    1MOL      C 1195  -0.859   0.104  -0.285
    1MOL      C 1196  -0.743   0.144  -0.349
    1MOL      C 1197  -0.730   0.130  -0.487
    1MOL      C 1198  -0.647   0.178  -0.243
    1MOL      O 1199  -0.536   0.222  -0.269
    1MOL      N 1200  -0.706   0.145  -0.121
    1MOL      C 1201  -0.833   0.099  -0.142
    1MOL      O 1202  -0.918   0.058  -0.066
    1MOL      C 1203  -0.630   0.117  -0.004
    1MOL      C 1204  -0.640  -0.008   0.058
    1MOL      C 1205  -0.536  -0.057   0.139
    1MOL      C 1206  -0.433   0.026   0.181
    1MOL      C 1207  -0.443   0.161   0.145
    1MOL      C 1208  -0.533   0.204   0.045
    1MOL      N 1209  -0.322  -0.023   0.256
    1MOL      C 1210  -0.255  -0.144   0.232
    1MOL      O 1211  -0.276  -0.217   0.136
    1MOL      C 1212  -0.157  -0.190   0.337
    1MOL      C 1213  -0.198  -0.168   0.469
    1MOL      C 1214  -0.122  -0.212   0.578
    1MOL      C 1215  -0.005  -0.283   0.559
    1MOL      C 1216   0.038  -0.305   0.429
    1MOL      C 1217  -0.035  -0.260   0.317
    1MOL      N 1218   0.028  -0.288   0.191
    1MOL      C 1219   0.165  -0.277   0.177
    1MOL      O 1220   0.249  -0.225   0.248
    1MOL      C 1221   0.205  -0.355   0.061
    1MOL      C 1222   0.094  -0.424   0.019
    1MOL      C 1223  -0.013  -0.395   0.115
    1MOL      O 1224  -0.104  -0.473   0.133
    1MOL      C 1225   0.095  -0.501  -0.096
    1MOL      C 1226   0.214  -0.503  -0.172
    1MOL      C 1227   0.330  -0.439  -0.122
    1MOL      C 1228   0.327  -0.364  -0.004
    1MOL      C 1229   0.217  -0.545  -0.316
    1MOL      O 1230   0.310  -0.503  -0.384
    1MOL      N 1231   0.107  -0.614  -0.364
    1MOL      C 1232   0.062  -0.615  -0.499
    1MOL      C 1233  -0.067  -0.667  -0.522
    1MOL      C 1234  -0.129  -0.653  -0.647
    1MOL      C 1235  -0.063  -0.586  -0.750
    1MOL      C 1236   0.069  -0.544  -0.729
    1MOL      C 1237   0.131  -0.559  -0.605
    1MOL      O 1238  -0.116  -0.552  -0.873
    1MOL      C 1239  -0.250  -0.569  -0.897
    1MOL      C 1240  -0.293  -0.694  -0.943
    1MOL      C 1241  -0.426  -0.712  -0.979
    1MOL      C 1242  -0.516  -0.605  -0.973
    1MOL      C 1243  -0.472  -0.478  -0.931
    1MOL      C 1244  -0.339  -0.459  -0.893
    1MOL      O 1245  -0.289  -0.341  -0.844
    1MOL      C 1246  -0.350  -0.221  -0.871
    1MOL      C 1247  -0.290  -0.136  -0.962
    1MOL      C 1248  -0.322   0.000  -0.963
    1MOL      C 1249  -0.415   0.057  -0.877
    1MOL      C 1250  -0.474  -0.029  -0.785
    1MOL      C 1251  -0.445  -0.168  -0.784
    1MOL      N 1252  -0.451   0.195  -0.879
    1MOL      C 1253  -0.426   0.277  -0.987
    1MOL      O 1254  -0.374   0.243  -1.093
    1MOL      C 1255  -0.458   0.421  -0.983
    1MOL      C 1256  -0.529   0.470  -1.094
    1MOL      C 1257  -0.496   0.594  -1.151
    1MOL      C 1258  -0.391   0.667  -1.097
    1MOL      C 1259  -0.332   0.626  -0.975
    1MOL      C 1260  -0.366   0.503  -0.918
    1MOL      N 1261  -0.326   0.765  -1.177
    1MOL      C 1262  -0.196   0.742  -1.216
    1MOL      O 1263  -0.136   0.637  -1.232
    1MOL      C 1264  -0.127   0.871  -1.215
    1MOL      C 1265  -0.217   0.965  -1.171
    1MOL      C 1266  -0.347   0.898  -1.154
    1MOL      O 1267  -0.447   0.957  -1.119
    1MOL      C 1268  -0.176   1.084  -1.114
    1MOL      C 1269  -0.039   1.099  -1.084
    1MOL      C 1270   0.052   1.010  -1.148
    1MOL      C 1271   0.009   0.895  -1.215
    1MOL      C 1272   0.078  -0.327   0.675
    1MOL      H 1273  -1.041   0.002  -0.548
    1MOL      H 1274  -1.059   0.025  -0.301
    1MOL      H 1275  -0.634   0.151  -0.533
    1MOL      H 1276  -0.720  -0.076   0.032
    1MOL      H 1277  -0.536  -0.162   0.166
    1MOL      H 1278  -0.372   0.234   0.183
    1MOL      H 1279  -0.524   0.305   0.006
    1MOL      H 1280  -0.269   0.048   0.306
    1MOL      H 1281  -0.292  -0.116   0.490
    1MOL      H 1282  -0.154  -0.190   0.678
    1MOL      H 1283   0.131  -0.360   0.417
    1MOL      H 1284   0.002  -0.545  -0.130
    1MOL      H 1285   0.423  -0.440  -0.180
    1MOL      H 1286   0.415  -0.311   0.032
    1MOL      H 1287   0.043  -0.654  -0.297
    1MOL      H 1288  -0.124  -0.711  -0.442
    1MOL      H 1289  -0.231  -0.687  -0.659
    1MOL      H 1290   0.124  -0.495  -0.809
    1MOL      H 1291   0.233  -0.522  -0.595
    1MOL      H 1292  -0.222  -0.776  -0.951
    1MOL      H 1293  -0.460  -0.809  -1.015
    1MOL      H 1294  -0.620  -0.619  -1.002
    1MOL      H 1295  -0.545  -0.397  -0.929
    1MOL      H 1296  -0.213  -0.173  -1.029
    1MOL      H 1297  -0.265   0.062  -1.030
    1MOL      H 1298  -0.544   0.009  -0.713
    1MOL      H 1299  -0.491  -0.234  -0.712
    1MOL      H 1300  -0.507   0.232  -0.803
    1MOL      H 1301  -0.597   0.405  -1.148
    1MOL      H 1302  -0.542   0.624  -1.245
    1MOL      H 1303  -0.250   0.683  -0.932
    1MOL      H 1304  -0.306   0.465  -0.835
    1MOL      H 1305  -0.252   1.148  -1.072
    1MOL      H 1306   0.160   1.019  -1.132
    1MOL      H 1307   0.079   0.820  -1.250
    1MOL      H 1308   0.130  -0.420   0.652
    1MOL      H 1309   0.151  -0.250   0.701
    1MOL      H 1310   0.014  -0.346   0.762
    1MOL      C 1311   0.004   1.174  -0.962
    1MOL      C 1312   0.141   1.192  -0.927
    1MOL      C 1313   0.181   1.215  -0.793
    1MOL      C 1314   0.082   1.223  -0.698
    1MOL      C 1315  -0.049   1.224  -0.733
    1MOL      C 1316  -0.091   1.202  -0.863
    1MOL      C 1317  -0.130   1.231  -0.613
    1MOL      O 1318  -0.251   1.243  -0.621
    1MOL      N 1319  -0.044   1.222  -0.506
    1MOL      C 1320   0.086   1.223  -0.551
    1MOL      O 1321   0.192   1.227  -0.492
    1MOL      C 1322  -0.084   1.223  -0.370
    1MOL      C 1323  -0.000   1.176  -0.269
    1MOL      C 1324  -0.038   1.186  -0.134
    1MOL      C 1325  -0.157   1.249  -0.097
    1MOL      C 1326  -0.244   1.289  -0.197
    1MOL      C 1327  -0.209   1.271  -0.332
    1MOL      N 1328  -0.178   1.276   0.039
    1MOL      C 1329  -0.251   1.383   0.088
    1MOL      O 1330  -0.327   1.457   0.025
    1MOL      C 1331  -0.209   1.422   0.225
    1MOL      C 1332  -0.085   1.489   0.228
    1MOL      C 1333  -0.018   1.512   0.347
    1MOL      C 1334  -0.072   1.466   0.467
    1MOL      C 1335  -0.197   1.400   0.463
    1MOL      C 1336  -0.269   1.379   0.343
    1MOL      N 1337  -0.396   1.316   0.349
    1MOL      C 1338  -0.510   1.368   0.290
    1MOL      O 1339  -0.526   1.470   0.225
    1MOL      C 1340  -0.623   1.291   0.343
    1MOL      C 1341  -0.574   1.206   0.440
    1MOL      C 1342  -0.430   1.223   0.445
    1MOL      O 1343  -0.362   1.166   0.529
    1MOL      C 1344  -0.656   1.132   0.521
    1MOL      C 1345  -0.794   1.149   0.505
    1MOL      C 1346  -0.845   1.234   0.405
    1MOL      C 1347  -0.758   1.304   0.321
    1MOL      C 1348  -0.884   1.060   0.581
    1MOL      O 1349  -0.841   0.948   0.604
    1MOL      N 1350  -1.010   1.106   0.612
    1MOL      C 1351  -1.126   1.027   0.592
    1MOL      C 1352  -1.247   1.094   0.581
    1MOL      C 1353  -1.350   1.035   0.509
    1MOL      C 1354  -1.327   0.911   0.446
    1MOL      C 1355  -1.220   0.832   0.483
    1MOL      C 1356  -1.119   0.891   0.556
    1MOL      O 1357  -1.389   0.881   0.325
    1MOL      C 1358  -1.372   0.985   0.235
    1MOL      C 1359  -1.488   1.059   0.208
    1MOL      C 1360  -1.477   1.186   0.152
    1MOL      C 1361  -1.351   1.238   0.124
    1MOL      C 1362  -1.235   1.159   0.141
    1MOL      C 1363  -1.245   1.030   0.192
    1MOL      O 1364  -1.134   0.950   0.216
    1MOL      C 1365  -1.021   0.964   0.138
    1MOL      C 1366  -1.025   0.966  -0.001
    1MOL      C 1367  -0.907   0.981  -0.076
    1MOL      C 1368  -0.782   0.995  -0.013
    1MOL      C 1369  -0.778   0.988   0.126
    1MOL      C 1370  -0.897   0.969   0.201
    1MOL      N 1371  -0.668   1.005  -0.097
    1MOL      C 1372  -0.535   1.011  -0.060
    1MOL      O 1373  -0.493   1.035   0.053
    1MOL      C 1374  -0.438   0.975  -0.169
    1MOL      C 1375  -0.340   0.881  -0.138
    1MOL      C 1376  -0.258   0.828  -0.239
    1MOL      C 1377  -0.267   0.870  -0.373
    1MOL      C 1378  -0.358   0.972  -0.400
    1MOL      C 1379  -0.445   1.022  -0.300
    1MOL      N 1380  -0.187   0.806  -0.473
    1MOL      C 1381  -0.142   0.676  -0.463
    1MOL      O 1382  -0.160   0.590  -0.379
    1MOL      C 1383  -0.069   0.645  -0.586
    1MOL      C 1384  -0.071   0.757  -0.667
    1MOL      C 1385  -0.154   0.856  -0.597
    1MOL      O 1386  -0.184   0.960  -0.654
    1MOL      C 1387   0.039   0.785  -0.751
    1MOL      C 1388   0.139   0.688  -0.766
    1MOL      C 1389   0.146   0.591  -0.665
    1MOL      C 1390   0.031   0.551  -0.598
    1MOL      C 1391  -0.001   1.485   0.597
    1MOL      H 1392   0.220   1.180  -1.001
    1MOL      H 1393   0.286   1.218  -0.766
    1MOL      H 1394  -0.198   1.190  -0.877
    1MOL      H 1395   0.094   1.129  -0.292
    1MOL      H 1396   0.028   1.147  -0.058
    1MOL      H 1397  -0.341   1.331  -0.174
    1MOL      H 1398  -0.284   1.300  -0.404
    1MOL      H 1399  -0.115   1.232   0.105
    1MOL      H 1400  -0.041   1.520   0.135
    1MOL      H 1401   0.077   1.565   0.345
    1MOL      H 1402  -0.239   1.368   0.559
    1MOL      H 1403  -0.614   1.065   0.595
    1MOL      H 1404  -0.952   1.241   0.385
    1MOL      H 1405  -0.798   1.368   0.244
    1MOL      H 1406  -1.025   1.206   0.606
    1MOL      H 1407  -1.257   1.198   0.612
    1MOL      H 1408  -1.437   1.094   0.485
    1MOL      H 1409  -1.205   0.734   0.438
    1MOL      H 1410  -1.030   0.831   0.571
    1MOL      H 1411  -1.585   1.022   0.241
    1MOL      H 1412  -1.565   1.247   0.137
    1MOL      H 1413  -1.342   1.340   0.092
    1MOL      H 1414  -1.138   1.203   0.118
    1MOL      H 1415  -1.120   0.957  -0.052
    1MOL      H 1416  -0.915   0.983  -0.184
    1MOL      H 1417  -0.684   0.995   0.180
    1MOL      H 1418  -0.892   0.961   0.309
    1MOL      H 1419  -0.686   0.993  -0.196
    1MOL      H 1420  -0.330   0.842  -0.036
    1MOL      H 1421  -0.189   0.751  -0.210
    1MOL      H 1422  -0.366   1.013  -0.500
    1MOL      H 1423  -0.517   1.099  -0.327
    1MOL      H 1424   0.054   0.886  -0.788
    1MOL      H 1425   0.242   0.570  -0.618
    1MOL      H 1426   0.013   0.447  -0.570
    1MOL      H 1427   0.026   1.387   0.640
    1MOL      H 1428   0.091   1.543   0.585
    1MOL      H 1429  -0.066   1.538   0.668
    1MOL      C 1430   0.224   0.675  -0.886
    1MOL      C 1431   0.167   0.647  -1.012
    1MOL      C 1432   0.245   0.607  -1.122
    1MOL      C 1433   0.383   0.609  -1.110
    1MOL      C 1434   0.442   0.630  -0.987
    1MOL      C 1435   0.365   0.668  -0.876
    1MOL      C 1436   0.567   0.554  -0.986
    1MOL      O 1437   0.647   0.564  -0.894
    1MOL      N 1438   0.581   0.490  -1.107
    1MOL      C 1439   0.476   0.527  -1.189
    1MOL      O 1440   0.459   0.507  -1.308
    1MOL      C 1441   0.647   0.364  -1.119
    1MOL      C 1442   0.586   0.253  -1.180
    1MOL      C 1443   0.656   0.132  -1.195
    1MOL      C 1444   0.772   0.109  -1.123
    1MOL      C 1445   0.839   0.220  -1.071
    1MOL      C 1446   0.778   0.347  -1.072
    1MOL      N 1447   0.795  -0.019  -1.065
    1MOL      C 1448   0.813  -0.133  -1.142
    1MOL      O 1449   0.725  -0.187  -1.208
    1MOL      C 1450   0.948  -0.194  -1.135
    1MOL      C 1451   1.060  -0.112  -1.157
    1MOL      C 1452   1.187  -0.170  -1.168
    1MOL      C 1453   1.200  -0.309  -1.175
    1MOL      C 1454   1.084  -0.386  -1.180
    1MOL      C 1455   0.965  -0.334  -1.129
    1MOL      N 1456   0.891  -0.413  -1.036
    1MOL      C 1457   0.861  -0.545  -1.062
    1MOL      O 1458   0.835  -0.599  -1.169
    1MOL      C 1459   0.863  -0.619  -0.934
    1MOL      C 1460   0.900  -0.528  -0.837
    1MOL      C 1461   0.922  -0.400  -0.903
    1MOL      O 1462   0.960  -0.301  -0.845
    1MOL      C 1463   0.959  -0.568  -0.717
    1MOL      C 1464   0.963  -0.705  -0.690
    1MOL      C 1465   0.942  -0.797  -0.793
    1MOL      C 1466   0.893  -0.754  -0.918
    1MOL      C 1467   1.001  -0.750  -0.554
    1MOL      O 1468   1.115  -0.791  -0.536
    1MOL      N 1469   0.903  -0.730  -0.458
    1MOL      C 1470   0.885  -0.814  -0.344
    1MOL      C 1471   0.948  -0.938  -0.330
    1MOL      C 1472   0.923  -1.019  -0.218
    1MOL      C 1473   0.829  -0.979  -0.123
    1MOL      C 1474   0.755  -0.863  -0.145
    1MOL      C 1475   0.791  -0.776  -0.248
    1MOL      O 1476   0.790  -1.069  -0.026
    1MOL      C 1477   0.830  -1.049   0.105
    1MOL      C 1478   0.903  -0.936   0.148
    1MOL      C 1479   0.925  -0.915   0.284
    1MOL      C 1480   0.897  -1.016   0.376
    1MOL      C 1481   0.842  -1.136   0.332
    1MOL      C 1482   0.789  -1.143   0.202
    1MOL      O 1483   0.669  -1.209   0.177
    1MOL      C 1484   0.648  -1.329   0.243
    1MOL      C 1485   0.535  -1.337   0.324
    1MOL      C 1486   0.461  -1.456   0.331
    1MOL      C 1487   0.504  -1.569   0.261
    1MOL      C 1488   0.628  -1.567   0.199
    1MOL      C 1489   0.701  -1.447   0.190
    1MOL      N 1490   0.416  -1.682   0.241
    1MOL      C 1491   0.410  -1.777   0.344
    1MOL      O 1492   0.453  -1.756   0.457
    1MOL      C 1493   0.348  -1.911   0.317
    1MOL      C 1494   0.393  -2.024   0.387
    1MOL      C 1495   0.362  -2.154   0.342
    1MOL      C 1496   0.275  -2.172   0.234
    1MOL      C 1497   0.195  -2.062   0.203
    1MOL      C 1498   0.241  -1.931   0.230
    1MOL      N 1499   0.285  -2.287   0.151
    1MOL      C 1500   0.184  -2.333   0.070
    1MOL      O 1501   0.065  -2.308   0.070
    1MOL      C 1502   0.240  -2.431  -0.024
    1MOL      C 1503   0.376  -2.440   0.004
    1MOL      C 1504   0.404  -2.342   0.111
    1MOL      O 1505   0.518  -2.321   0.151
    1MOL      C 1506   0.467  -2.477  -0.095
    1MOL      C 1507   0.428  -2.482  -0.230
    1MOL      C 1508   0.289  -2.483  -0.255
    1MOL      C 1509   0.196  -2.448  -0.155
    1MOL      C 1510   1.334  -0.373  -1.159
    1MOL      H 1511   0.059   0.649  -1.024
    1MOL      H 1512   0.198   0.568  -1.212
    1MOL      H 1513   0.415   0.689  -0.782
    1MOL      H 1514   0.484   0.258  -1.218
    1MOL      H 1515   0.627   0.064  -1.274
    1MOL      H 1516   0.936   0.208  -1.022
    1MOL      H 1517   0.834   0.433  -1.035
    1MOL      H 1518   0.741  -0.034  -0.980
    1MOL      H 1519   1.048  -0.006  -1.176
    1MOL      H 1520   1.275  -0.106  -1.166
    1MOL      H 1521   1.080  -0.474  -1.245
    1MOL      H 1522   0.996  -0.495  -0.646
    1MOL      H 1523   0.987  -0.896  -0.785
    1MOL      H 1524   0.885  -0.822  -1.001
    1MOL      H 1525   0.892  -0.630  -0.436
    1MOL      H 1526   1.018  -0.974  -0.404
    1MOL      H 1527   0.968  -1.118  -0.212
    1MOL      H 1528   0.662  -0.846  -0.090
    1MOL      H 1529   0.755  -0.674  -0.245
    1MOL      H 1530   0.953  -0.871   0.077
    1MOL      H 1531   0.959  -0.818   0.319
    1MOL      H 1532   0.917  -1.002   0.482
    1MOL      H 1533   0.857  -1.227   0.390
    1MOL      H 1534   0.503  -1.250   0.381
    1MOL      H 1535   0.381  -1.465   0.404
    1MOL      H 1536   0.679  -1.660   0.184
    1MOL      H 1537   0.800  -1.447   0.146
    1MOL      H 1538   0.322  -1.647   0.223
    1MOL      H 1539   0.427  -2.010   0.490
    1MOL      H 1540   0.409  -2.238   0.391
    1MOL      H 1541   0.088  -2.077   0.190
    1MOL      H 1542   0.203  -1.850   0.170
    1MOL      H 1543   0.566  -2.511  -0.065
    1MOL      H 1544   0.251  -2.525  -0.349
    1MOL      H 1545   0.090  -2.439  -0.179
    1MOL      H 1546   1.357  -0.385  -1.052
    1MOL      H 1547   1.412  -0.312  -1.205
    1MOL      H 1548   1.336  -0.472  -1.206
    1MOL      C 1549   0.526  -2.475  -0.342
    1MOL      C 1550   0.658  -2.520  -0.327
    1MOL      C 1551   0.765  -2.444  -0.377
    1MOL      C 1552   0.735  -2.341  -0.465
    1MOL      C 1553   0.607  -2.330  -0.515
    1MOL      C 1554   0.502  -2.404  -0.460
    1MOL      C 1555   0.623  -2.288  -0.655
    1MOL      O 1556   0.546  -2.320  -0.744
    1MOL      N 1557   0.746  -2.227  -0.665
    1MOL      C 1558   0.824  -2.278  -0.564
    1MOL      O 1559   0.946  -2.283  -0.556
    1MOL      C 1560   0.750  -2.087  -0.695
    1MOL      C 1561   0.635  -2.019  -0.734
    1MOL      C 1562   0.623  -1.886  -0.692
    1MOL      C 1563   0.734  -1.808  -0.665
    1MOL      C 1564   0.859  -1.871  -0.668
    1MOL      C 1565   0.867  -2.011  -0.686
    1MOL      N 1566   0.717  -1.690  -0.589
    1MOL      C 1567   0.676  -1.572  -0.648
    1MOL      O 1568   0.575  -1.558  -0.715
    1MOL      C 1569   0.765  -1.456  -0.623
    1MOL      C 1570   0.882  -1.458  -0.701
    1MOL      C 1571   0.904  -1.356  -0.792
    1MOL      C 1572   0.826  -1.239  -0.785
    1MOL      C 1573   0.740  -1.222  -0.675
    1MOL      C 1574   0.709  -1.330  -0.591
    1MOL      N 1575   0.642  -1.310  -0.468
    1MOL      C 1576   0.712  -1.322  -0.351
    1MOL      O 1577   0.820  -1.375  -0.330
    1MOL      C 1578   0.639  -1.250  -0.248
    1MOL      C 1579   0.552  -1.163  -0.312
    1MOL      C 1580   0.545  -1.213  -0.452
    1MOL      O 1581   0.465  -1.170  -0.533
    1MOL      C 1582   0.450  -1.102  -0.239
    1MOL      C 1583   0.431  -1.137  -0.104
    1MOL      C 1584   0.495  -1.253  -0.056
    1MOL      C 1585   0.603  -1.308  -0.127
    1MOL      C 1586   0.363  -1.041  -0.009
    1MOL      O 1587   0.376  -0.919  -0.027
    1MOL      N 1588   0.287  -1.096   0.095
    1MOL      C 1589   0.173  -1.030   0.149
    1MOL      C 1590   0.191  -0.929   0.244
    1MOL      C 1591   0.088  -0.897   0.334
    1MOL      C 1592  -0.037  -0.960   0.326
    1MOL      C 1593  -0.056  -1.057   0.228
    1MOL      C 1594   0.046  -1.087   0.135
    1MOL      O 1595  -0.121  -0.959   0.436
    1MOL      C 1596  -0.213  -0.854   0.447
    1MOL      C 1597  -0.162  -0.725   0.467
    1MOL      C 1598  -0.181  -0.663   0.591
    1MOL      C 1599  -0.271  -0.719   0.683
    1MOL      C 1600  -0.333  -0.841   0.651
    1MOL      C 1601  -0.330  -0.882   0.518
    1MOL      O 1602  -0.446  -0.919   0.452
    1MOL      C 1603  -0.560  -0.847   0.481
    1MOL      C 1604  -0.565  -0.709   0.471
    1MOL      C 1605  -0.673  -0.640   0.527
    1MOL      C 1606  -0.794  -0.706   0.546
    1MOL      C 1607  -0.796  -0.845   0.538
    1MOL      C 1608  -0.678  -0.916   0.509
    1MOL      N 1609  -0.909  -0.634   0.586
    1MOL      C 1610  -0.971  -0.546   0.497
    1MOL      O 1611  -0.981  -0.566   0.376
    1MOL      C 1612  -1.033  -0.423   0.557
    1MOL      C 1613  -0.960  -0.344   0.647
    1MOL      C 1614  -1.024  -0.236   0.711
    1MOL      C 1615  -1.138  -0.179   0.654
    1MOL      C 1616  -1.208  -0.253   0.558
    1MOL      C 1617  -1.157  -0.377   0.512
    1MOL      N 1618  -1.187  -0.051   0.693
    1MOL      C 1619  -1.223  -0.021   0.821
    1MOL      O 1620  -1.256  -0.096   0.912
    1MOL      C 1621  -1.214   0.126   0.838
    1MOL      C 1622  -1.158   0.177   0.722
    1MOL      C 1623  -1.155   0.065   0.625
    1MOL      O 1624  -1.145   0.085   0.505
    1MOL      C 1625  -1.060   0.278   0.728
    1MOL      C 1626  -1.009   0.317   0.853
    1MOL      C 1627  -1.092   0.290   0.964
    1MOL      C 1628  -1.186   0.187   0.960
    1MOL      C 1629   0.823  -1.142  -0.899
    1MOL      H 1630   0.675  -2.625  -0.301
    1MOL      H 1631   0.868  -2.463  -0.347
    1MOL      H 1632   0.407  -2.410  -0.512
    1MOL      H 1633   0.571  -2.058  -0.813
    1MOL      H 1634   0.528  -1.862  -0.647
    1MOL      H 1635   0.949  -1.815  -0.649
    1MOL      H 1636   0.965  -2.058  -0.700
    1MOL      H 1637   0.701  -1.700  -0.490
    1MOL      H 1638   0.956  -1.537  -0.685
    1MOL      H 1639   0.981  -1.366  -0.868
    1MOL      H 1640   0.709  -1.121  -0.648
    1MOL      H 1641   0.390  -1.023  -0.284
    1MOL      H 1642   0.448  -1.313   0.022
    1MOL      H 1643   0.655  -1.397  -0.091
    1MOL      H 1644   0.287  -1.197   0.108
    1MOL      H 1645   0.282  -0.870   0.243
    1MOL      H 1646   0.107  -0.824   0.412
    1MOL      H 1647  -0.150  -1.112   0.224
    1MOL      H 1648   0.022  -1.147   0.048
    1MOL      H 1649  -0.133  -0.666   0.381
    1MOL      H 1650  -0.130  -0.570   0.613
    1MOL      H 1651  -0.309  -0.660   0.766
    1MOL      H 1652  -0.378  -0.903   0.728
    1MOL      H 1653  -0.497  -0.658   0.403
    1MOL      H 1654  -0.657  -0.542   0.571
    1MOL      H 1655  -0.892  -0.897   0.535
    1MOL      H 1656  -0.681  -1.024   0.500
    1MOL      H 1657  -0.913  -0.610   0.684
    1MOL      H 1658  -0.851  -0.350   0.648
    1MOL      H 1659  -1.001  -0.218   0.815
    1MOL      H 1660  -1.290  -0.207   0.503
    1MOL      H 1661  -1.209  -0.430   0.432
    1MOL      H 1662  -1.032   0.330   0.636
    1MOL      H 1663  -1.091   0.356   1.051
    1MOL      H 1664  -1.237   0.155   1.050
    1MOL      H 1665   0.764  -1.184  -0.982
    1MOL      H 1666   0.924  -1.122  -0.936
    1MOL      H 1667   0.778  -1.047  -0.868
    1MOL      C 1668  -0.870   0.369   0.872
    1MOL      C 1669  -0.831   0.421   0.997
    1MOL      C 1670  -0.705   0.393   1.049
    1MOL      C 1671  -0.607   0.352   0.960
    1MOL      C 1672  -0.634   0.351   0.824
    1MOL      C 1673  -0.766   0.354   0.778
    1MOL      C 1674  -0.517   0.415   0.759
    1MOL      O 1675  -0.518   0.447   0.642
    1MOL      N 1676  -0.421   0.437   0.856
    1MOL      C 1677  -0.464   0.383   0.975
    1MOL      O 1678  -0.403   0.349   1.075
    1MOL      C 1679  -0.284   0.459   0.824
    1MOL      C 1680  -0.182   0.382   0.882
    1MOL      C 1681  -0.048   0.422   0.872
    1MOL      C 1682  -0.012   0.512   0.772
    1MOL      C 1683  -0.111   0.595   0.718
    1MOL      C 1684  -0.247   0.566   0.742
    1MOL      N 1685   0.110   0.492   0.703
    1MOL      C 1686   0.218   0.574   0.732
    1MOL      O 1687   0.223   0.691   0.698
    1MOL      C 1688   0.336   0.509   0.800
    1MOL      C 1689   0.332   0.373   0.834
    1MOL      C 1690   0.448   0.296   0.825
    1MOL      C 1691   0.572   0.359   0.821
    1MOL      C 1692   0.575   0.492   0.781
    1MOL      C 1693   0.461   0.571   0.800
    1MOL      N 1694   0.478   0.707   0.836
    1MOL      C 1695   0.503   0.741   0.967
    1MOL      O 1696   0.474   0.684   1.071
    1MOL      C 1697   0.579   0.868   0.966
    1MOL      C 1698   0.613   0.896   0.834
    1MOL      C 1699   0.551   0.789   0.753
    1MOL      O 1700   0.571   0.779   0.633
    1MOL      C 1701   0.735   0.956   0.802
    1MOL      C 1702   0.826   0.980   0.906
    1MOL      C 1703   0.784   0.970   1.040
    1MOL      C 1704   0.663   0.907   1.071
    1MOL      C 1705   0.970   0.959   0.878
    1MOL      O 1706   1.009   0.855   0.829
    1MOL      N 1707   1.054   1.059   0.921
    1MOL      C 1708   1.070   1.174   0.841
    1MOL      C 1709   1.129   1.165   0.714
    1MOL      C 1710   1.163   1.281   0.646
    1MOL      C 1711   1.111   1.402   0.691
    1MOL      C 1712   1.072   1.415   0.824
    1MOL      C 1713   1.043   1.299   0.897
    1MOL      O 1714   1.089   1.507   0.605
    1MOL      C 1715   0.992   1.483   0.512
    1MOL      C 1716   1.031   1.451   0.382
    1MOL      C 1717   0.950   1.365   0.308
    1MOL      C 1718   0.821   1.336   0.353
    1MOL      C 1719   0.776   1.389   0.475
    1MOL      C 1720   0.857   1.479   0.545
    1MOL      O 1721   0.805   1.584   0.617
    1MOL      C 1722   0.706   1.554   0.708
    1MOL      C 1723   0.732   1.472   0.819
    1MOL      C 1724   0.671   1.504   0.940
    1MOL      C 1725   0.549   1.572   0.937
    1MOL      C 1726   0.514   1.645   0.823
    1MOL      C 1727   0.590   1.631   0.706
    1MOL      N 1728   0.452   1.546   1.036
    1MOL      C 1729   0.421   1.643   1.128
    1MOL      O 1730   0.481   1.748   1.147
    1MOL      C 1731   0.305   1.611   1.213
    1MOL      C 1732   0.175   1.623   1.163
    1MOL      C 1733   0.072   1.557   1.230
    1MOL      C 1734   0.093   1.515   1.362
    1MOL      C 1735   0.224   1.495   1.407
    1MOL      C 1736   0.328   1.560   1.341
    1MOL      N 1737  -0.011   1.519   1.457
    1MOL      C 1738  -0.061   1.641   1.496
    1MOL      O 1739  -0.004   1.745   1.520
    1MOL      C 1740  -0.206   1.624   1.516
    1MOL      C 1741  -0.233   1.488   1.503
    1MOL      C 1742  -0.109   1.424   1.455
    1MOL      O 1743  -0.103   1.307   1.421
    1MOL      C 1744  -0.359   1.444   1.466
    1MOL      C 1745  -0.453   1.538   1.421
    1MOL      C 1746  -0.422   1.675   1.422
    1MOL      C 1747  -0.298   1.718   1.471
    1MOL      H 1748  -0.553   1.505   1.395
    1MOL      C 1749   0.698   0.290   0.862
    1MOL      H 1750  -0.888   0.504   1.040
    1MOL      H 1751  -0.677   0.429   1.148
    1MOL      H 1752  -0.786   0.333   0.674
    1MOL      H 1753  -0.205   0.289   0.932
    1MOL      H 1754   0.014   0.414   0.961
    1MOL      H 1755  -0.083   0.690   0.673
    1MOL      H 1756  -0.322   0.629   0.695
    1MOL      H 1757   0.095   0.481   0.603
    1MOL      H 1758   0.243   0.332   0.883
    1MOL      H 1759   0.439   0.189   0.806
    1MOL      H 1760   0.655   0.527   0.715
    1MOL      H 1761   0.761   0.976   0.699
    1MOL      H 1762   0.844   1.015   1.119
    1MOL      H 1763   0.635   0.887   1.174
    1MOL      H 1764   1.144   1.019   0.948
    1MOL      H 1765   1.132   1.069   0.662
    1MOL      H 1766   1.231   1.278   0.561
    1MOL      H 1767   1.060   1.514   0.868
    1MOL      H 1768   0.991   1.308   0.992
    1MOL      H 1769   1.114   1.502   0.336
    1MOL      H 1770   0.988   1.319   0.217
    1MOL      H 1771   0.755   1.272   0.295
    1MOL      H 1772   0.687   1.347   0.521
    1MOL      H 1773   0.777   1.374   0.804
    1MOL      H 1774   0.732   1.510   1.030
    1MOL      H 1775   0.440   1.725   0.830
    1MOL      H 1776   0.566   1.692   0.619
    1MOL      H 1777   0.464   1.455   1.078
    1MOL      H 1778   0.151   1.699   1.089
    1MOL      H 1779  -0.015   1.522   1.174
    1MOL      H 1780   0.244   1.431   1.492
    1MOL      H 1781   0.412   1.598   1.399
    1MOL      H 1782  -0.391   1.342   1.490
    1MOL      H 1783  -0.496   1.747   1.389
    1MOL      H 1784  -0.276   1.824   1.478
    1MOL      H 1785   0.738   0.232   0.779
    1MOL      H 1786   0.679   0.223   0.947
    1MOL      H 1787   0.774   0.362   0.894
   0.00000   0.00000   0.00000   0.00000   0.00000   0.00000   0.00000   0.00000   0.00000
