; Created by Sobtop (http://sobereva.com/soft/sobtop) Version 2026.1.16 on 2026-05-09

[ atomtypes ]
; name   at.num      mass       charge   ptype     sigma (nm)    epsilon (kJ/mol)
ha           1     1.007941    0.000000    A      2.599642E-01    6.276000E-02
ca           6    12.010736    0.000000    A      3.399670E-01    3.598240E-01
c            6    12.010736    0.000000    A      3.399670E-01    3.598240E-01
o            8    15.999405    0.000000    A      2.959922E-01    8.786400E-01
n            7    14.006703    0.000000    A      3.249999E-01    7.112800E-01
os           8    15.999405    0.000000    A      3.000012E-01    7.112800E-01
cp           6    12.010736    0.000000    A      3.399670E-01    3.598240E-01
c3           6    12.010736    0.000000    A      3.399670E-01    4.577296E-01
hn           1     1.007941    0.000000    A      1.069078E-01    6.568880E-02
hc           1     1.007941    0.000000    A      2.649533E-01    6.568880E-02

[ moleculetype ]
; name          nrexcl
PA260506_08       3

; Atomic charges are MMFF94 charges calculated by OpenBabel
[ atoms ]
;  Index   type   residue  resname   atom         cgnr     charge       mass
     1     ha         1      MOL     H              1    0.15000000    1.007941
     2     ca         1      MOL     C              2   -0.15000000   12.010736
     3     ca         1      MOL     C              3   -0.15000000   12.010736
     4     ca         1      MOL     C              4   -0.15000000   12.010736
     5     ca         1      MOL     C              5    0.08620000   12.010736
     6     ca         1      MOL     C              6    0.08620000   12.010736
     7     ca         1      MOL     C              7   -0.15000000   12.010736
     8     c          1      MOL     C              8    0.54380000   12.010736
     9     o          1      MOL     O              9   -0.57000000   15.999405
    10     n          1      MOL     N             10   -0.23700000   14.006703
    11     c          1      MOL     C             11    0.54380000   12.010736
    12     o          1      MOL     O             12   -0.57000000   15.999405
    13     ca         1      MOL     C             13    0.11700000   12.010736
    14     ca         1      MOL     C             14   -0.15000000   12.010736
    15     ca         1      MOL     C             15   -0.15000000   12.010736
    16     ca         1      MOL     C             16    0.11700000   12.010736
    17     ca         1      MOL     C             17   -0.15000000   12.010736
    18     ca         1      MOL     C             18   -0.15000000   12.010736
    19     n          1      MOL     N             19   -0.54700000   14.006703
    20     c          1      MOL     C             20    0.54380000   12.010736
    21     o          1      MOL     O             21   -0.57000000   15.999405
    22     ca         1      MOL     C             22    0.08620000   12.010736
    23     ca         1      MOL     C             23   -0.15000000   12.010736
    24     ca         1      MOL     C             24   -0.15000000   12.010736
    25     ca         1      MOL     C             25   -0.14350000   12.010736
    26     ca         1      MOL     C             26   -0.15000000   12.010736
    27     ca         1      MOL     C             27    0.11700000   12.010736
    28     n          1      MOL     N             28   -0.23700000   14.006703
    29     c          1      MOL     C             29    0.54380000   12.010736
    30     o          1      MOL     O             30   -0.57000000   15.999405
    31     ca         1      MOL     C             31    0.08620000   12.010736
    32     ca         1      MOL     C             32    0.08620000   12.010736
    33     c          1      MOL     C             33    0.54380000   12.010736
    34     o          1      MOL     O             34   -0.57000000   15.999405
    35     ca         1      MOL     C             35   -0.15000000   12.010736
    36     ca         1      MOL     C             36    0.08620000   12.010736
    37     ca         1      MOL     C             37   -0.15000000   12.010736
    38     ca         1      MOL     C             38   -0.15000000   12.010736
    39     c          1      MOL     C             39    0.54380000   12.010736
    40     o          1      MOL     O             40   -0.57000000   15.999405
    41     n          1      MOL     N             41   -0.54700000   14.006703
    42     ca         1      MOL     C             42    0.11700000   12.010736
    43     ca         1      MOL     C             43   -0.15000000   12.010736
    44     ca         1      MOL     C             44   -0.15000000   12.010736
    45     ca         1      MOL     C             45    0.08250000   12.010736
    46     ca         1      MOL     C             46   -0.15000000   12.010736
    47     ca         1      MOL     C             47   -0.15000000   12.010736
    48     os         1      MOL     O             48   -0.16500000   15.999405
    49     ca         1      MOL     C             49    0.08250000   12.010736
    50     ca         1      MOL     C             50   -0.15000000   12.010736
    51     ca         1      MOL     C             51   -0.15000000   12.010736
    52     ca         1      MOL     C             52   -0.15000000   12.010736
    53     ca         1      MOL     C             53   -0.15000000   12.010736
    54     ca         1      MOL     C             54    0.08250000   12.010736
    55     os         1      MOL     O             55   -0.16500000   15.999405
    56     ca         1      MOL     C             56    0.08250000   12.010736
    57     ca         1      MOL     C             57   -0.15000000   12.010736
    58     ca         1      MOL     C             58   -0.15000000   12.010736
    59     ca         1      MOL     C             59    0.11700000   12.010736
    60     ca         1      MOL     C             60   -0.15000000   12.010736
    61     ca         1      MOL     C             61   -0.15000000   12.010736
    62     n          1      MOL     N             62   -0.54700000   14.006703
    63     c          1      MOL     C             63    0.54380000   12.010736
    64     o          1      MOL     O             64   -0.57000000   15.999405
    65     ca         1      MOL     C             65    0.08620000   12.010736
    66     ca         1      MOL     C             66   -0.15000000   12.010736
    67     ca         1      MOL     C             67   -0.15000000   12.010736
    68     ca         1      MOL     C             68    0.11700000   12.010736
    69     ca         1      MOL     C             69   -0.15000000   12.010736
    70     ca         1      MOL     C             70   -0.15000000   12.010736
    71     n          1      MOL     N             71   -0.23700000   14.006703
    72     c          1      MOL     C             72    0.54380000   12.010736
    73     o          1      MOL     O             73   -0.57000000   15.999405
    74     ca         1      MOL     C             74    0.08620000   12.010736
    75     ca         1      MOL     C             75    0.08620000   12.010736
    76     c          1      MOL     C             76    0.54380000   12.010736
    77     o          1      MOL     O             77   -0.57000000   15.999405
    78     ca         1      MOL     C             78   -0.15000000   12.010736
    79     cp         1      MOL     C             79    0.00000000   12.010736
    80     ca         1      MOL     C             80   -0.15000000   12.010736
    81     ca         1      MOL     C             81   -0.15000000   12.010736
    82     c3         1      MOL     C             82    0.14350000   12.010736
    83     ha         1      MOL     H             83    0.15000000    1.007941
    84     ha         1      MOL     H             84    0.15000000    1.007941
    85     ha         1      MOL     H             85    0.15000000    1.007941
    86     ha         1      MOL     H             86    0.15000000    1.007941
    87     ha         1      MOL     H             87    0.15000000    1.007941
    88     ha         1      MOL     H             88    0.15000000    1.007941
    89     ha         1      MOL     H             89    0.15000000    1.007941
    90     hn         1      MOL     H             90    0.37000000    1.007941
    91     ha         1      MOL     H             91    0.15000000    1.007941
    92     ha         1      MOL     H             92    0.15000000    1.007941
    93     ha         1      MOL     H             93    0.15000000    1.007941
    94     ha         1      MOL     H             94    0.15000000    1.007941
    95     ha         1      MOL     H             95    0.15000000    1.007941
    96     ha         1      MOL     H             96    0.15000000    1.007941
    97     hn         1      MOL     H             97    0.37000000    1.007941
    98     ha         1      MOL     H             98    0.15000000    1.007941
    99     ha         1      MOL     H             99    0.15000000    1.007941
   100     ha         1      MOL     H            100    0.15000000    1.007941
   101     ha         1      MOL     H            101    0.15000000    1.007941
   102     ha         1      MOL     H            102    0.15000000    1.007941
   103     ha         1      MOL     H            103    0.15000000    1.007941
   104     ha         1      MOL     H            104    0.15000000    1.007941
   105     ha         1      MOL     H            105    0.15000000    1.007941
   106     ha         1      MOL     H            106    0.15000000    1.007941
   107     ha         1      MOL     H            107    0.15000000    1.007941
   108     ha         1      MOL     H            108    0.15000000    1.007941
   109     ha         1      MOL     H            109    0.15000000    1.007941
   110     hn         1      MOL     H            110    0.37000000    1.007941
   111     ha         1      MOL     H            111    0.15000000    1.007941
   112     ha         1      MOL     H            112    0.15000000    1.007941
   113     ha         1      MOL     H            113    0.15000000    1.007941
   114     ha         1      MOL     H            114    0.15000000    1.007941
   115     ha         1      MOL     H            115    0.15000000    1.007941
   116     ha         1      MOL     H            116    0.15000000    1.007941
   117     ha         1      MOL     H            117    0.15000000    1.007941
   118     hc         1      MOL     H            118    0.00000000    1.007941
   119     hc         1      MOL     H            119    0.00000000    1.007941
   120     hc         1      MOL     H            120    0.00000000    1.007941
   121     cp         1      MOL     C            121    0.00000000   12.010736
   122     ca         1      MOL     C            122   -0.15000000   12.010736
   123     ca         1      MOL     C            123   -0.15000000   12.010736
   124     ca         1      MOL     C            124    0.08620000   12.010736
   125     ca         1      MOL     C            125    0.08620000   12.010736
   126     ca         1      MOL     C            126   -0.15000000   12.010736
   127     c          1      MOL     C            127    0.54380000   12.010736
   128     o          1      MOL     O            128   -0.57000000   15.999405
   129     n          1      MOL     N            129   -0.23700000   14.006703
   130     c          1      MOL     C            130    0.54380000   12.010736
   131     o          1      MOL     O            131   -0.57000000   15.999405
   132     ca         1      MOL     C            132    0.11700000   12.010736
   133     ca         1      MOL     C            133   -0.15000000   12.010736
   134     ca         1      MOL     C            134   -0.15000000   12.010736
   135     ca         1      MOL     C            135    0.11700000   12.010736
   136     ca         1      MOL     C            136   -0.15000000   12.010736
   137     ca         1      MOL     C            137   -0.15000000   12.010736
   138     n          1      MOL     N            138   -0.54700000   14.006703
   139     c          1      MOL     C            139    0.54380000   12.010736
   140     o          1      MOL     O            140   -0.57000000   15.999405
   141     ca         1      MOL     C            141    0.08620000   12.010736
   142     ca         1      MOL     C            142   -0.15000000   12.010736
   143     ca         1      MOL     C            143   -0.15000000   12.010736
   144     ca         1      MOL     C            144   -0.14350000   12.010736
   145     ca         1      MOL     C            145   -0.15000000   12.010736
   146     ca         1      MOL     C            146    0.11700000   12.010736
   147     n          1      MOL     N            147   -0.23700000   14.006703
   148     c          1      MOL     C            148    0.54380000   12.010736
   149     o          1      MOL     O            149   -0.57000000   15.999405
   150     ca         1      MOL     C            150    0.08620000   12.010736
   151     ca         1      MOL     C            151    0.08620000   12.010736
   152     c          1      MOL     C            152    0.54380000   12.010736
   153     o          1      MOL     O            153   -0.57000000   15.999405
   154     ca         1      MOL     C            154   -0.15000000   12.010736
   155     ca         1      MOL     C            155    0.08620000   12.010736
   156     ca         1      MOL     C            156   -0.15000000   12.010736
   157     ca         1      MOL     C            157   -0.15000000   12.010736
   158     c          1      MOL     C            158    0.54380000   12.010736
   159     o          1      MOL     O            159   -0.57000000   15.999405
   160     n          1      MOL     N            160   -0.54700000   14.006703
   161     ca         1      MOL     C            161    0.11700000   12.010736
   162     ca         1      MOL     C            162   -0.15000000   12.010736
   163     ca         1      MOL     C            163   -0.15000000   12.010736
   164     ca         1      MOL     C            164    0.08250000   12.010736
   165     ca         1      MOL     C            165   -0.15000000   12.010736
   166     ca         1      MOL     C            166   -0.15000000   12.010736
   167     os         1      MOL     O            167   -0.16500000   15.999405
   168     ca         1      MOL     C            168    0.08250000   12.010736
   169     ca         1      MOL     C            169   -0.15000000   12.010736
   170     ca         1      MOL     C            170   -0.15000000   12.010736
   171     ca         1      MOL     C            171   -0.15000000   12.010736
   172     ca         1      MOL     C            172   -0.15000000   12.010736
   173     ca         1      MOL     C            173    0.08250000   12.010736
   174     os         1      MOL     O            174   -0.16500000   15.999405
   175     ca         1      MOL     C            175    0.08250000   12.010736
   176     ca         1      MOL     C            176   -0.15000000   12.010736
   177     ca         1      MOL     C            177   -0.15000000   12.010736
   178     ca         1      MOL     C            178    0.11700000   12.010736
   179     ca         1      MOL     C            179   -0.15000000   12.010736
   180     ca         1      MOL     C            180   -0.15000000   12.010736
   181     n          1      MOL     N            181   -0.54700000   14.006703
   182     c          1      MOL     C            182    0.54380000   12.010736
   183     o          1      MOL     O            183   -0.57000000   15.999405
   184     ca         1      MOL     C            184    0.08620000   12.010736
   185     ca         1      MOL     C            185   -0.15000000   12.010736
   186     ca         1      MOL     C            186   -0.15000000   12.010736
   187     ca         1      MOL     C            187    0.11700000   12.010736
   188     ca         1      MOL     C            188   -0.15000000   12.010736
   189     ca         1      MOL     C            189   -0.15000000   12.010736
   190     n          1      MOL     N            190   -0.23700000   14.006703
   191     c          1      MOL     C            191    0.54380000   12.010736
   192     o          1      MOL     O            192   -0.57000000   15.999405
   193     ca         1      MOL     C            193    0.08620000   12.010736
   194     ca         1      MOL     C            194    0.08620000   12.010736
   195     c          1      MOL     C            195    0.54380000   12.010736
   196     o          1      MOL     O            196   -0.57000000   15.999405
   197     ca         1      MOL     C            197   -0.15000000   12.010736
   198     cp         1      MOL     C            198    0.00000000   12.010736
   199     ca         1      MOL     C            199   -0.15000000   12.010736
   200     ca         1      MOL     C            200   -0.15000000   12.010736
   201     c3         1      MOL     C            201    0.14350000   12.010736
   202     ha         1      MOL     H            202    0.15000000    1.007941
   203     ha         1      MOL     H            203    0.15000000    1.007941
   204     ha         1      MOL     H            204    0.15000000    1.007941
   205     ha         1      MOL     H            205    0.15000000    1.007941
   206     ha         1      MOL     H            206    0.15000000    1.007941
   207     ha         1      MOL     H            207    0.15000000    1.007941
   208     ha         1      MOL     H            208    0.15000000    1.007941
   209     hn         1      MOL     H            209    0.37000000    1.007941
   210     ha         1      MOL     H            210    0.15000000    1.007941
   211     ha         1      MOL     H            211    0.15000000    1.007941
   212     ha         1      MOL     H            212    0.15000000    1.007941
   213     ha         1      MOL     H            213    0.15000000    1.007941
   214     ha         1      MOL     H            214    0.15000000    1.007941
   215     ha         1      MOL     H            215    0.15000000    1.007941
   216     hn         1      MOL     H            216    0.37000000    1.007941
   217     ha         1      MOL     H            217    0.15000000    1.007941
   218     ha         1      MOL     H            218    0.15000000    1.007941
   219     ha         1      MOL     H            219    0.15000000    1.007941
   220     ha         1      MOL     H            220    0.15000000    1.007941
   221     ha         1      MOL     H            221    0.15000000    1.007941
   222     ha         1      MOL     H            222    0.15000000    1.007941
   223     ha         1      MOL     H            223    0.15000000    1.007941
   224     ha         1      MOL     H            224    0.15000000    1.007941
   225     ha         1      MOL     H            225    0.15000000    1.007941
   226     ha         1      MOL     H            226    0.15000000    1.007941
   227     ha         1      MOL     H            227    0.15000000    1.007941
   228     ha         1      MOL     H            228    0.15000000    1.007941
   229     hn         1      MOL     H            229    0.37000000    1.007941
   230     ha         1      MOL     H            230    0.15000000    1.007941
   231     ha         1      MOL     H            231    0.15000000    1.007941
   232     ha         1      MOL     H            232    0.15000000    1.007941
   233     ha         1      MOL     H            233    0.15000000    1.007941
   234     ha         1      MOL     H            234    0.15000000    1.007941
   235     ha         1      MOL     H            235    0.15000000    1.007941
   236     ha         1      MOL     H            236    0.15000000    1.007941
   237     hc         1      MOL     H            237    0.00000000    1.007941
   238     hc         1      MOL     H            238    0.00000000    1.007941
   239     hc         1      MOL     H            239    0.00000000    1.007941
   240     cp         1      MOL     C            240    0.00000000   12.010736
   241     ca         1      MOL     C            241   -0.15000000   12.010736
   242     ca         1      MOL     C            242   -0.15000000   12.010736
   243     ca         1      MOL     C            243    0.08620000   12.010736
   244     ca         1      MOL     C            244    0.08620000   12.010736
   245     ca         1      MOL     C            245   -0.15000000   12.010736
   246     c          1      MOL     C            246    0.54380000   12.010736
   247     o          1      MOL     O            247   -0.57000000   15.999405
   248     n          1      MOL     N            248   -0.23700000   14.006703
   249     c          1      MOL     C            249    0.54380000   12.010736
   250     o          1      MOL     O            250   -0.57000000   15.999405
   251     ca         1      MOL     C            251    0.11700000   12.010736
   252     ca         1      MOL     C            252   -0.15000000   12.010736
   253     ca         1      MOL     C            253   -0.15000000   12.010736
   254     ca         1      MOL     C            254    0.11700000   12.010736
   255     ca         1      MOL     C            255   -0.15000000   12.010736
   256     ca         1      MOL     C            256   -0.15000000   12.010736
   257     n          1      MOL     N            257   -0.54700000   14.006703
   258     c          1      MOL     C            258    0.54380000   12.010736
   259     o          1      MOL     O            259   -0.57000000   15.999405
   260     ca         1      MOL     C            260    0.08620000   12.010736
   261     ca         1      MOL     C            261   -0.15000000   12.010736
   262     ca         1      MOL     C            262   -0.15000000   12.010736
   263     ca         1      MOL     C            263   -0.14350000   12.010736
   264     ca         1      MOL     C            264   -0.15000000   12.010736
   265     ca         1      MOL     C            265    0.11700000   12.010736
   266     n          1      MOL     N            266   -0.23700000   14.006703
   267     c          1      MOL     C            267    0.54380000   12.010736
   268     o          1      MOL     O            268   -0.57000000   15.999405
   269     ca         1      MOL     C            269    0.08620000   12.010736
   270     ca         1      MOL     C            270    0.08620000   12.010736
   271     c          1      MOL     C            271    0.54380000   12.010736
   272     o          1      MOL     O            272   -0.57000000   15.999405
   273     ca         1      MOL     C            273   -0.15000000   12.010736
   274     ca         1      MOL     C            274    0.08620000   12.010736
   275     ca         1      MOL     C            275   -0.15000000   12.010736
   276     ca         1      MOL     C            276   -0.15000000   12.010736
   277     c          1      MOL     C            277    0.54380000   12.010736
   278     o          1      MOL     O            278   -0.57000000   15.999405
   279     n          1      MOL     N            279   -0.54700000   14.006703
   280     ca         1      MOL     C            280    0.11700000   12.010736
   281     ca         1      MOL     C            281   -0.15000000   12.010736
   282     ca         1      MOL     C            282   -0.15000000   12.010736
   283     ca         1      MOL     C            283    0.08250000   12.010736
   284     ca         1      MOL     C            284   -0.15000000   12.010736
   285     ca         1      MOL     C            285   -0.15000000   12.010736
   286     os         1      MOL     O            286   -0.16500000   15.999405
   287     ca         1      MOL     C            287    0.08250000   12.010736
   288     ca         1      MOL     C            288   -0.15000000   12.010736
   289     ca         1      MOL     C            289   -0.15000000   12.010736
   290     ca         1      MOL     C            290   -0.15000000   12.010736
   291     ca         1      MOL     C            291   -0.15000000   12.010736
   292     ca         1      MOL     C            292    0.08250000   12.010736
   293     os         1      MOL     O            293   -0.16500000   15.999405
   294     ca         1      MOL     C            294    0.08250000   12.010736
   295     ca         1      MOL     C            295   -0.15000000   12.010736
   296     ca         1      MOL     C            296   -0.15000000   12.010736
   297     ca         1      MOL     C            297    0.11700000   12.010736
   298     ca         1      MOL     C            298   -0.15000000   12.010736
   299     ca         1      MOL     C            299   -0.15000000   12.010736
   300     n          1      MOL     N            300   -0.54700000   14.006703
   301     c          1      MOL     C            301    0.54380000   12.010736
   302     o          1      MOL     O            302   -0.57000000   15.999405
   303     ca         1      MOL     C            303    0.08620000   12.010736
   304     ca         1      MOL     C            304   -0.15000000   12.010736
   305     ca         1      MOL     C            305   -0.15000000   12.010736
   306     ca         1      MOL     C            306    0.11700000   12.010736
   307     ca         1      MOL     C            307   -0.15000000   12.010736
   308     ca         1      MOL     C            308   -0.15000000   12.010736
   309     n          1      MOL     N            309   -0.23700000   14.006703
   310     c          1      MOL     C            310    0.54380000   12.010736
   311     o          1      MOL     O            311   -0.57000000   15.999405
   312     ca         1      MOL     C            312    0.08620000   12.010736
   313     ca         1      MOL     C            313    0.08620000   12.010736
   314     c          1      MOL     C            314    0.54380000   12.010736
   315     o          1      MOL     O            315   -0.57000000   15.999405
   316     ca         1      MOL     C            316   -0.15000000   12.010736
   317     cp         1      MOL     C            317    0.00000000   12.010736
   318     ca         1      MOL     C            318   -0.15000000   12.010736
   319     ca         1      MOL     C            319   -0.15000000   12.010736
   320     c3         1      MOL     C            320    0.14350000   12.010736
   321     ha         1      MOL     H            321    0.15000000    1.007941
   322     ha         1      MOL     H            322    0.15000000    1.007941
   323     ha         1      MOL     H            323    0.15000000    1.007941
   324     ha         1      MOL     H            324    0.15000000    1.007941
   325     ha         1      MOL     H            325    0.15000000    1.007941
   326     ha         1      MOL     H            326    0.15000000    1.007941
   327     ha         1      MOL     H            327    0.15000000    1.007941
   328     hn         1      MOL     H            328    0.37000000    1.007941
   329     ha         1      MOL     H            329    0.15000000    1.007941
   330     ha         1      MOL     H            330    0.15000000    1.007941
   331     ha         1      MOL     H            331    0.15000000    1.007941
   332     ha         1      MOL     H            332    0.15000000    1.007941
   333     ha         1      MOL     H            333    0.15000000    1.007941
   334     ha         1      MOL     H            334    0.15000000    1.007941
   335     hn         1      MOL     H            335    0.37000000    1.007941
   336     ha         1      MOL     H            336    0.15000000    1.007941
   337     ha         1      MOL     H            337    0.15000000    1.007941
   338     ha         1      MOL     H            338    0.15000000    1.007941
   339     ha         1      MOL     H            339    0.15000000    1.007941
   340     ha         1      MOL     H            340    0.15000000    1.007941
   341     ha         1      MOL     H            341    0.15000000    1.007941
   342     ha         1      MOL     H            342    0.15000000    1.007941
   343     ha         1      MOL     H            343    0.15000000    1.007941
   344     ha         1      MOL     H            344    0.15000000    1.007941
   345     ha         1      MOL     H            345    0.15000000    1.007941
   346     ha         1      MOL     H            346    0.15000000    1.007941
   347     ha         1      MOL     H            347    0.15000000    1.007941
   348     hn         1      MOL     H            348    0.37000000    1.007941
   349     ha         1      MOL     H            349    0.15000000    1.007941
   350     ha         1      MOL     H            350    0.15000000    1.007941
   351     ha         1      MOL     H            351    0.15000000    1.007941
   352     ha         1      MOL     H            352    0.15000000    1.007941
   353     ha         1      MOL     H            353    0.15000000    1.007941
   354     ha         1      MOL     H            354    0.15000000    1.007941
   355     ha         1      MOL     H            355    0.15000000    1.007941
   356     hc         1      MOL     H            356    0.00000000    1.007941
   357     hc         1      MOL     H            357    0.00000000    1.007941
   358     hc         1      MOL     H            358    0.00000000    1.007941
   359     cp         1      MOL     C            359    0.00000000   12.010736
   360     ca         1      MOL     C            360   -0.15000000   12.010736
   361     ca         1      MOL     C            361   -0.15000000   12.010736
   362     ca         1      MOL     C            362    0.08620000   12.010736
   363     ca         1      MOL     C            363    0.08620000   12.010736
   364     ca         1      MOL     C            364   -0.15000000   12.010736
   365     c          1      MOL     C            365    0.54380000   12.010736
   366     o          1      MOL     O            366   -0.57000000   15.999405
   367     n          1      MOL     N            367   -0.23700000   14.006703
   368     c          1      MOL     C            368    0.54380000   12.010736
   369     o          1      MOL     O            369   -0.57000000   15.999405
   370     ca         1      MOL     C            370    0.11700000   12.010736
   371     ca         1      MOL     C            371   -0.15000000   12.010736
   372     ca         1      MOL     C            372   -0.15000000   12.010736
   373     ca         1      MOL     C            373    0.11700000   12.010736
   374     ca         1      MOL     C            374   -0.15000000   12.010736
   375     ca         1      MOL     C            375   -0.15000000   12.010736
   376     n          1      MOL     N            376   -0.54700000   14.006703
   377     c          1      MOL     C            377    0.54380000   12.010736
   378     o          1      MOL     O            378   -0.57000000   15.999405
   379     ca         1      MOL     C            379    0.08620000   12.010736
   380     ca         1      MOL     C            380   -0.15000000   12.010736
   381     ca         1      MOL     C            381   -0.15000000   12.010736
   382     ca         1      MOL     C            382   -0.14350000   12.010736
   383     ca         1      MOL     C            383   -0.15000000   12.010736
   384     ca         1      MOL     C            384    0.11700000   12.010736
   385     n          1      MOL     N            385   -0.23700000   14.006703
   386     c          1      MOL     C            386    0.54380000   12.010736
   387     o          1      MOL     O            387   -0.57000000   15.999405
   388     ca         1      MOL     C            388    0.08620000   12.010736
   389     ca         1      MOL     C            389    0.08620000   12.010736
   390     c          1      MOL     C            390    0.54380000   12.010736
   391     o          1      MOL     O            391   -0.57000000   15.999405
   392     ca         1      MOL     C            392   -0.15000000   12.010736
   393     ca         1      MOL     C            393    0.08620000   12.010736
   394     ca         1      MOL     C            394   -0.15000000   12.010736
   395     ca         1      MOL     C            395   -0.15000000   12.010736
   396     c          1      MOL     C            396    0.54380000   12.010736
   397     o          1      MOL     O            397   -0.57000000   15.999405
   398     n          1      MOL     N            398   -0.54700000   14.006703
   399     ca         1      MOL     C            399    0.11700000   12.010736
   400     ca         1      MOL     C            400   -0.15000000   12.010736
   401     ca         1      MOL     C            401   -0.15000000   12.010736
   402     ca         1      MOL     C            402    0.08250000   12.010736
   403     ca         1      MOL     C            403   -0.15000000   12.010736
   404     ca         1      MOL     C            404   -0.15000000   12.010736
   405     os         1      MOL     O            405   -0.16500000   15.999405
   406     ca         1      MOL     C            406    0.08250000   12.010736
   407     ca         1      MOL     C            407   -0.15000000   12.010736
   408     ca         1      MOL     C            408   -0.15000000   12.010736
   409     ca         1      MOL     C            409   -0.15000000   12.010736
   410     ca         1      MOL     C            410   -0.15000000   12.010736
   411     ca         1      MOL     C            411    0.08250000   12.010736
   412     os         1      MOL     O            412   -0.16500000   15.999405
   413     ca         1      MOL     C            413    0.08250000   12.010736
   414     ca         1      MOL     C            414   -0.15000000   12.010736
   415     ca         1      MOL     C            415   -0.15000000   12.010736
   416     ca         1      MOL     C            416    0.11700000   12.010736
   417     ca         1      MOL     C            417   -0.15000000   12.010736
   418     ca         1      MOL     C            418   -0.15000000   12.010736
   419     n          1      MOL     N            419   -0.54700000   14.006703
   420     c          1      MOL     C            420    0.54380000   12.010736
   421     o          1      MOL     O            421   -0.57000000   15.999405
   422     ca         1      MOL     C            422    0.08620000   12.010736
   423     ca         1      MOL     C            423   -0.15000000   12.010736
   424     ca         1      MOL     C            424   -0.15000000   12.010736
   425     ca         1      MOL     C            425    0.11700000   12.010736
   426     ca         1      MOL     C            426   -0.15000000   12.010736
   427     ca         1      MOL     C            427   -0.15000000   12.010736
   428     n          1      MOL     N            428   -0.23700000   14.006703
   429     c          1      MOL     C            429    0.54380000   12.010736
   430     o          1      MOL     O            430   -0.57000000   15.999405
   431     ca         1      MOL     C            431    0.08620000   12.010736
   432     ca         1      MOL     C            432    0.08620000   12.010736
   433     c          1      MOL     C            433    0.54380000   12.010736
   434     o          1      MOL     O            434   -0.57000000   15.999405
   435     ca         1      MOL     C            435   -0.15000000   12.010736
   436     cp         1      MOL     C            436    0.00000000   12.010736
   437     ca         1      MOL     C            437   -0.15000000   12.010736
   438     ca         1      MOL     C            438   -0.15000000   12.010736
   439     c3         1      MOL     C            439    0.14350000   12.010736
   440     ha         1      MOL     H            440    0.15000000    1.007941
   441     ha         1      MOL     H            441    0.15000000    1.007941
   442     ha         1      MOL     H            442    0.15000000    1.007941
   443     ha         1      MOL     H            443    0.15000000    1.007941
   444     ha         1      MOL     H            444    0.15000000    1.007941
   445     ha         1      MOL     H            445    0.15000000    1.007941
   446     ha         1      MOL     H            446    0.15000000    1.007941
   447     hn         1      MOL     H            447    0.37000000    1.007941
   448     ha         1      MOL     H            448    0.15000000    1.007941
   449     ha         1      MOL     H            449    0.15000000    1.007941
   450     ha         1      MOL     H            450    0.15000000    1.007941
   451     ha         1      MOL     H            451    0.15000000    1.007941
   452     ha         1      MOL     H            452    0.15000000    1.007941
   453     ha         1      MOL     H            453    0.15000000    1.007941
   454     hn         1      MOL     H            454    0.37000000    1.007941
   455     ha         1      MOL     H            455    0.15000000    1.007941
   456     ha         1      MOL     H            456    0.15000000    1.007941
   457     ha         1      MOL     H            457    0.15000000    1.007941
   458     ha         1      MOL     H            458    0.15000000    1.007941
   459     ha         1      MOL     H            459    0.15000000    1.007941
   460     ha         1      MOL     H            460    0.15000000    1.007941
   461     ha         1      MOL     H            461    0.15000000    1.007941
   462     ha         1      MOL     H            462    0.15000000    1.007941
   463     ha         1      MOL     H            463    0.15000000    1.007941
   464     ha         1      MOL     H            464    0.15000000    1.007941
   465     ha         1      MOL     H            465    0.15000000    1.007941
   466     ha         1      MOL     H            466    0.15000000    1.007941
   467     hn         1      MOL     H            467    0.37000000    1.007941
   468     ha         1      MOL     H            468    0.15000000    1.007941
   469     ha         1      MOL     H            469    0.15000000    1.007941
   470     ha         1      MOL     H            470    0.15000000    1.007941
   471     ha         1      MOL     H            471    0.15000000    1.007941
   472     ha         1      MOL     H            472    0.15000000    1.007941
   473     ha         1      MOL     H            473    0.15000000    1.007941
   474     ha         1      MOL     H            474    0.15000000    1.007941
   475     hc         1      MOL     H            475    0.00000000    1.007941
   476     hc         1      MOL     H            476    0.00000000    1.007941
   477     hc         1      MOL     H            477    0.00000000    1.007941
   478     cp         1      MOL     C            478    0.00000000   12.010736
   479     ca         1      MOL     C            479   -0.15000000   12.010736
   480     ca         1      MOL     C            480   -0.15000000   12.010736
   481     ca         1      MOL     C            481    0.08620000   12.010736
   482     ca         1      MOL     C            482    0.08620000   12.010736
   483     ca         1      MOL     C            483   -0.15000000   12.010736
   484     c          1      MOL     C            484    0.54380000   12.010736
   485     o          1      MOL     O            485   -0.57000000   15.999405
   486     n          1      MOL     N            486   -0.23700000   14.006703
   487     c          1      MOL     C            487    0.54380000   12.010736
   488     o          1      MOL     O            488   -0.57000000   15.999405
   489     ca         1      MOL     C            489    0.11700000   12.010736
   490     ca         1      MOL     C            490   -0.15000000   12.010736
   491     ca         1      MOL     C            491   -0.15000000   12.010736
   492     ca         1      MOL     C            492    0.11700000   12.010736
   493     ca         1      MOL     C            493   -0.15000000   12.010736
   494     ca         1      MOL     C            494   -0.15000000   12.010736
   495     n          1      MOL     N            495   -0.54700000   14.006703
   496     c          1      MOL     C            496    0.54380000   12.010736
   497     o          1      MOL     O            497   -0.57000000   15.999405
   498     ca         1      MOL     C            498    0.08620000   12.010736
   499     ca         1      MOL     C            499   -0.15000000   12.010736
   500     ca         1      MOL     C            500   -0.15000000   12.010736
   501     ca         1      MOL     C            501   -0.14350000   12.010736
   502     ca         1      MOL     C            502   -0.15000000   12.010736
   503     ca         1      MOL     C            503    0.11700000   12.010736
   504     n          1      MOL     N            504   -0.23700000   14.006703
   505     c          1      MOL     C            505    0.54380000   12.010736
   506     o          1      MOL     O            506   -0.57000000   15.999405
   507     ca         1      MOL     C            507    0.08620000   12.010736
   508     ca         1      MOL     C            508    0.08620000   12.010736
   509     c          1      MOL     C            509    0.54380000   12.010736
   510     o          1      MOL     O            510   -0.57000000   15.999405
   511     ca         1      MOL     C            511   -0.15000000   12.010736
   512     ca         1      MOL     C            512    0.08620000   12.010736
   513     ca         1      MOL     C            513   -0.15000000   12.010736
   514     ca         1      MOL     C            514   -0.15000000   12.010736
   515     c          1      MOL     C            515    0.54380000   12.010736
   516     o          1      MOL     O            516   -0.57000000   15.999405
   517     n          1      MOL     N            517   -0.54700000   14.006703
   518     ca         1      MOL     C            518    0.11700000   12.010736
   519     ca         1      MOL     C            519   -0.15000000   12.010736
   520     ca         1      MOL     C            520   -0.15000000   12.010736
   521     ca         1      MOL     C            521    0.08250000   12.010736
   522     ca         1      MOL     C            522   -0.15000000   12.010736
   523     ca         1      MOL     C            523   -0.15000000   12.010736
   524     os         1      MOL     O            524   -0.16500000   15.999405
   525     ca         1      MOL     C            525    0.08250000   12.010736
   526     ca         1      MOL     C            526   -0.15000000   12.010736
   527     ca         1      MOL     C            527   -0.15000000   12.010736
   528     ca         1      MOL     C            528   -0.15000000   12.010736
   529     ca         1      MOL     C            529   -0.15000000   12.010736
   530     ca         1      MOL     C            530    0.08250000   12.010736
   531     os         1      MOL     O            531   -0.16500000   15.999405
   532     ca         1      MOL     C            532    0.08250000   12.010736
   533     ca         1      MOL     C            533   -0.15000000   12.010736
   534     ca         1      MOL     C            534   -0.15000000   12.010736
   535     ca         1      MOL     C            535    0.11700000   12.010736
   536     ca         1      MOL     C            536   -0.15000000   12.010736
   537     ca         1      MOL     C            537   -0.15000000   12.010736
   538     n          1      MOL     N            538   -0.54700000   14.006703
   539     c          1      MOL     C            539    0.54380000   12.010736
   540     o          1      MOL     O            540   -0.57000000   15.999405
   541     ca         1      MOL     C            541    0.08620000   12.010736
   542     ca         1      MOL     C            542   -0.15000000   12.010736
   543     ca         1      MOL     C            543   -0.15000000   12.010736
   544     ca         1      MOL     C            544    0.11700000   12.010736
   545     ca         1      MOL     C            545   -0.15000000   12.010736
   546     ca         1      MOL     C            546   -0.15000000   12.010736
   547     n          1      MOL     N            547   -0.23700000   14.006703
   548     c          1      MOL     C            548    0.54380000   12.010736
   549     o          1      MOL     O            549   -0.57000000   15.999405
   550     ca         1      MOL     C            550    0.08620000   12.010736
   551     ca         1      MOL     C            551    0.08620000   12.010736
   552     c          1      MOL     C            552    0.54380000   12.010736
   553     o          1      MOL     O            553   -0.57000000   15.999405
   554     ca         1      MOL     C            554   -0.15000000   12.010736
   555     cp         1      MOL     C            555    0.00000000   12.010736
   556     ca         1      MOL     C            556   -0.15000000   12.010736
   557     ca         1      MOL     C            557   -0.15000000   12.010736
   558     c3         1      MOL     C            558    0.14350000   12.010736
   559     ha         1      MOL     H            559    0.15000000    1.007941
   560     ha         1      MOL     H            560    0.15000000    1.007941
   561     ha         1      MOL     H            561    0.15000000    1.007941
   562     ha         1      MOL     H            562    0.15000000    1.007941
   563     ha         1      MOL     H            563    0.15000000    1.007941
   564     ha         1      MOL     H            564    0.15000000    1.007941
   565     ha         1      MOL     H            565    0.15000000    1.007941
   566     hn         1      MOL     H            566    0.37000000    1.007941
   567     ha         1      MOL     H            567    0.15000000    1.007941
   568     ha         1      MOL     H            568    0.15000000    1.007941
   569     ha         1      MOL     H            569    0.15000000    1.007941
   570     ha         1      MOL     H            570    0.15000000    1.007941
   571     ha         1      MOL     H            571    0.15000000    1.007941
   572     ha         1      MOL     H            572    0.15000000    1.007941
   573     hn         1      MOL     H            573    0.37000000    1.007941
   574     ha         1      MOL     H            574    0.15000000    1.007941
   575     ha         1      MOL     H            575    0.15000000    1.007941
   576     ha         1      MOL     H            576    0.15000000    1.007941
   577     ha         1      MOL     H            577    0.15000000    1.007941
   578     ha         1      MOL     H            578    0.15000000    1.007941
   579     ha         1      MOL     H            579    0.15000000    1.007941
   580     ha         1      MOL     H            580    0.15000000    1.007941
   581     ha         1      MOL     H            581    0.15000000    1.007941
   582     ha         1      MOL     H            582    0.15000000    1.007941
   583     ha         1      MOL     H            583    0.15000000    1.007941
   584     ha         1      MOL     H            584    0.15000000    1.007941
   585     ha         1      MOL     H            585    0.15000000    1.007941
   586     hn         1      MOL     H            586    0.37000000    1.007941
   587     ha         1      MOL     H            587    0.15000000    1.007941
   588     ha         1      MOL     H            588    0.15000000    1.007941
   589     ha         1      MOL     H            589    0.15000000    1.007941
   590     ha         1      MOL     H            590    0.15000000    1.007941
   591     ha         1      MOL     H            591    0.15000000    1.007941
   592     ha         1      MOL     H            592    0.15000000    1.007941
   593     ha         1      MOL     H            593    0.15000000    1.007941
   594     hc         1      MOL     H            594    0.00000000    1.007941
   595     hc         1      MOL     H            595    0.00000000    1.007941
   596     hc         1      MOL     H            596    0.00000000    1.007941
   597     cp         1      MOL     C            597    0.00000000   12.010736
   598     ca         1      MOL     C            598   -0.15000000   12.010736
   599     ca         1      MOL     C            599   -0.15000000   12.010736
   600     ca         1      MOL     C            600    0.08620000   12.010736
   601     ca         1      MOL     C            601    0.08620000   12.010736
   602     ca         1      MOL     C            602   -0.15000000   12.010736
   603     c          1      MOL     C            603    0.54380000   12.010736
   604     o          1      MOL     O            604   -0.57000000   15.999405
   605     n          1      MOL     N            605   -0.23700000   14.006703
   606     c          1      MOL     C            606    0.54380000   12.010736
   607     o          1      MOL     O            607   -0.57000000   15.999405
   608     ca         1      MOL     C            608    0.11700000   12.010736
   609     ca         1      MOL     C            609   -0.15000000   12.010736
   610     ca         1      MOL     C            610   -0.15000000   12.010736
   611     ca         1      MOL     C            611    0.11700000   12.010736
   612     ca         1      MOL     C            612   -0.15000000   12.010736
   613     ca         1      MOL     C            613   -0.15000000   12.010736
   614     n          1      MOL     N            614   -0.54700000   14.006703
   615     c          1      MOL     C            615    0.54380000   12.010736
   616     o          1      MOL     O            616   -0.57000000   15.999405
   617     ca         1      MOL     C            617    0.08620000   12.010736
   618     ca         1      MOL     C            618   -0.15000000   12.010736
   619     ca         1      MOL     C            619   -0.15000000   12.010736
   620     ca         1      MOL     C            620   -0.14350000   12.010736
   621     ca         1      MOL     C            621   -0.15000000   12.010736
   622     ca         1      MOL     C            622    0.11700000   12.010736
   623     n          1      MOL     N            623   -0.23700000   14.006703
   624     c          1      MOL     C            624    0.54380000   12.010736
   625     o          1      MOL     O            625   -0.57000000   15.999405
   626     ca         1      MOL     C            626    0.08620000   12.010736
   627     ca         1      MOL     C            627    0.08620000   12.010736
   628     c          1      MOL     C            628    0.54380000   12.010736
   629     o          1      MOL     O            629   -0.57000000   15.999405
   630     ca         1      MOL     C            630   -0.15000000   12.010736
   631     ca         1      MOL     C            631    0.08620000   12.010736
   632     ca         1      MOL     C            632   -0.15000000   12.010736
   633     ca         1      MOL     C            633   -0.15000000   12.010736
   634     c          1      MOL     C            634    0.54380000   12.010736
   635     o          1      MOL     O            635   -0.57000000   15.999405
   636     n          1      MOL     N            636   -0.54700000   14.006703
   637     ca         1      MOL     C            637    0.11700000   12.010736
   638     ca         1      MOL     C            638   -0.15000000   12.010736
   639     ca         1      MOL     C            639   -0.15000000   12.010736
   640     ca         1      MOL     C            640    0.08250000   12.010736
   641     ca         1      MOL     C            641   -0.15000000   12.010736
   642     ca         1      MOL     C            642   -0.15000000   12.010736
   643     os         1      MOL     O            643   -0.16500000   15.999405
   644     ca         1      MOL     C            644    0.08250000   12.010736
   645     ca         1      MOL     C            645   -0.15000000   12.010736
   646     ca         1      MOL     C            646   -0.15000000   12.010736
   647     ca         1      MOL     C            647   -0.15000000   12.010736
   648     ca         1      MOL     C            648   -0.15000000   12.010736
   649     ca         1      MOL     C            649    0.08250000   12.010736
   650     os         1      MOL     O            650   -0.16500000   15.999405
   651     ca         1      MOL     C            651    0.08250000   12.010736
   652     ca         1      MOL     C            652   -0.15000000   12.010736
   653     ca         1      MOL     C            653   -0.15000000   12.010736
   654     ca         1      MOL     C            654    0.11700000   12.010736
   655     ca         1      MOL     C            655   -0.15000000   12.010736
   656     ca         1      MOL     C            656   -0.15000000   12.010736
   657     n          1      MOL     N            657   -0.54700000   14.006703
   658     c          1      MOL     C            658    0.54380000   12.010736
   659     o          1      MOL     O            659   -0.57000000   15.999405
   660     ca         1      MOL     C            660    0.08620000   12.010736
   661     ca         1      MOL     C            661   -0.15000000   12.010736
   662     ca         1      MOL     C            662   -0.15000000   12.010736
   663     ca         1      MOL     C            663    0.11700000   12.010736
   664     ca         1      MOL     C            664   -0.15000000   12.010736
   665     ca         1      MOL     C            665   -0.15000000   12.010736
   666     n          1      MOL     N            666   -0.23700000   14.006703
   667     c          1      MOL     C            667    0.54380000   12.010736
   668     o          1      MOL     O            668   -0.57000000   15.999405
   669     ca         1      MOL     C            669    0.08620000   12.010736
   670     ca         1      MOL     C            670    0.08620000   12.010736
   671     c          1      MOL     C            671    0.54380000   12.010736
   672     o          1      MOL     O            672   -0.57000000   15.999405
   673     ca         1      MOL     C            673   -0.15000000   12.010736
   674     cp         1      MOL     C            674    0.00000000   12.010736
   675     ca         1      MOL     C            675   -0.15000000   12.010736
   676     ca         1      MOL     C            676   -0.15000000   12.010736
   677     c3         1      MOL     C            677    0.14350000   12.010736
   678     ha         1      MOL     H            678    0.15000000    1.007941
   679     ha         1      MOL     H            679    0.15000000    1.007941
   680     ha         1      MOL     H            680    0.15000000    1.007941
   681     ha         1      MOL     H            681    0.15000000    1.007941
   682     ha         1      MOL     H            682    0.15000000    1.007941
   683     ha         1      MOL     H            683    0.15000000    1.007941
   684     ha         1      MOL     H            684    0.15000000    1.007941
   685     hn         1      MOL     H            685    0.37000000    1.007941
   686     ha         1      MOL     H            686    0.15000000    1.007941
   687     ha         1      MOL     H            687    0.15000000    1.007941
   688     ha         1      MOL     H            688    0.15000000    1.007941
   689     ha         1      MOL     H            689    0.15000000    1.007941
   690     ha         1      MOL     H            690    0.15000000    1.007941
   691     ha         1      MOL     H            691    0.15000000    1.007941
   692     hn         1      MOL     H            692    0.37000000    1.007941
   693     ha         1      MOL     H            693    0.15000000    1.007941
   694     ha         1      MOL     H            694    0.15000000    1.007941
   695     ha         1      MOL     H            695    0.15000000    1.007941
   696     ha         1      MOL     H            696    0.15000000    1.007941
   697     ha         1      MOL     H            697    0.15000000    1.007941
   698     ha         1      MOL     H            698    0.15000000    1.007941
   699     ha         1      MOL     H            699    0.15000000    1.007941
   700     ha         1      MOL     H            700    0.15000000    1.007941
   701     ha         1      MOL     H            701    0.15000000    1.007941
   702     ha         1      MOL     H            702    0.15000000    1.007941
   703     ha         1      MOL     H            703    0.15000000    1.007941
   704     ha         1      MOL     H            704    0.15000000    1.007941
   705     hn         1      MOL     H            705    0.37000000    1.007941
   706     ha         1      MOL     H            706    0.15000000    1.007941
   707     ha         1      MOL     H            707    0.15000000    1.007941
   708     ha         1      MOL     H            708    0.15000000    1.007941
   709     ha         1      MOL     H            709    0.15000000    1.007941
   710     ha         1      MOL     H            710    0.15000000    1.007941
   711     ha         1      MOL     H            711    0.15000000    1.007941
   712     ha         1      MOL     H            712    0.15000000    1.007941
   713     hc         1      MOL     H            713    0.00000000    1.007941
   714     hc         1      MOL     H            714    0.00000000    1.007941
   715     hc         1      MOL     H            715    0.00000000    1.007941
   716     cp         1      MOL     C            716    0.00000000   12.010736
   717     ca         1      MOL     C            717   -0.15000000   12.010736
   718     ca         1      MOL     C            718   -0.15000000   12.010736
   719     ca         1      MOL     C            719    0.08620000   12.010736
   720     ca         1      MOL     C            720    0.08620000   12.010736
   721     ca         1      MOL     C            721   -0.15000000   12.010736
   722     c          1      MOL     C            722    0.54380000   12.010736
   723     o          1      MOL     O            723   -0.57000000   15.999405
   724     n          1      MOL     N            724   -0.23700000   14.006703
   725     c          1      MOL     C            725    0.54380000   12.010736
   726     o          1      MOL     O            726   -0.57000000   15.999405
   727     ca         1      MOL     C            727    0.11700000   12.010736
   728     ca         1      MOL     C            728   -0.15000000   12.010736
   729     ca         1      MOL     C            729   -0.15000000   12.010736
   730     ca         1      MOL     C            730    0.11700000   12.010736
   731     ca         1      MOL     C            731   -0.15000000   12.010736
   732     ca         1      MOL     C            732   -0.15000000   12.010736
   733     n          1      MOL     N            733   -0.54700000   14.006703
   734     c          1      MOL     C            734    0.54380000   12.010736
   735     o          1      MOL     O            735   -0.57000000   15.999405
   736     ca         1      MOL     C            736    0.08620000   12.010736
   737     ca         1      MOL     C            737   -0.15000000   12.010736
   738     ca         1      MOL     C            738   -0.15000000   12.010736
   739     ca         1      MOL     C            739   -0.14350000   12.010736
   740     ca         1      MOL     C            740   -0.15000000   12.010736
   741     ca         1      MOL     C            741    0.11700000   12.010736
   742     n          1      MOL     N            742   -0.23700000   14.006703
   743     c          1      MOL     C            743    0.54380000   12.010736
   744     o          1      MOL     O            744   -0.57000000   15.999405
   745     ca         1      MOL     C            745    0.08620000   12.010736
   746     ca         1      MOL     C            746    0.08620000   12.010736
   747     c          1      MOL     C            747    0.54380000   12.010736
   748     o          1      MOL     O            748   -0.57000000   15.999405
   749     ca         1      MOL     C            749   -0.15000000   12.010736
   750     ca         1      MOL     C            750    0.08620000   12.010736
   751     ca         1      MOL     C            751   -0.15000000   12.010736
   752     ca         1      MOL     C            752   -0.15000000   12.010736
   753     c          1      MOL     C            753    0.54380000   12.010736
   754     o          1      MOL     O            754   -0.57000000   15.999405
   755     n          1      MOL     N            755   -0.54700000   14.006703
   756     ca         1      MOL     C            756    0.11700000   12.010736
   757     ca         1      MOL     C            757   -0.15000000   12.010736
   758     ca         1      MOL     C            758   -0.15000000   12.010736
   759     ca         1      MOL     C            759    0.08250000   12.010736
   760     ca         1      MOL     C            760   -0.15000000   12.010736
   761     ca         1      MOL     C            761   -0.15000000   12.010736
   762     os         1      MOL     O            762   -0.16500000   15.999405
   763     ca         1      MOL     C            763    0.08250000   12.010736
   764     ca         1      MOL     C            764   -0.15000000   12.010736
   765     ca         1      MOL     C            765   -0.15000000   12.010736
   766     ca         1      MOL     C            766   -0.15000000   12.010736
   767     ca         1      MOL     C            767   -0.15000000   12.010736
   768     ca         1      MOL     C            768    0.08250000   12.010736
   769     os         1      MOL     O            769   -0.16500000   15.999405
   770     ca         1      MOL     C            770    0.08250000   12.010736
   771     ca         1      MOL     C            771   -0.15000000   12.010736
   772     ca         1      MOL     C            772   -0.15000000   12.010736
   773     ca         1      MOL     C            773    0.11700000   12.010736
   774     ca         1      MOL     C            774   -0.15000000   12.010736
   775     ca         1      MOL     C            775   -0.15000000   12.010736
   776     n          1      MOL     N            776   -0.54700000   14.006703
   777     c          1      MOL     C            777    0.54380000   12.010736
   778     o          1      MOL     O            778   -0.57000000   15.999405
   779     ca         1      MOL     C            779    0.08620000   12.010736
   780     ca         1      MOL     C            780   -0.15000000   12.010736
   781     ca         1      MOL     C            781   -0.15000000   12.010736
   782     ca         1      MOL     C            782    0.11700000   12.010736
   783     ca         1      MOL     C            783   -0.15000000   12.010736
   784     ca         1      MOL     C            784   -0.15000000   12.010736
   785     n          1      MOL     N            785   -0.23700000   14.006703
   786     c          1      MOL     C            786    0.54380000   12.010736
   787     o          1      MOL     O            787   -0.57000000   15.999405
   788     ca         1      MOL     C            788    0.08620000   12.010736
   789     ca         1      MOL     C            789    0.08620000   12.010736
   790     c          1      MOL     C            790    0.54380000   12.010736
   791     o          1      MOL     O            791   -0.57000000   15.999405
   792     ca         1      MOL     C            792   -0.15000000   12.010736
   793     cp         1      MOL     C            793    0.00000000   12.010736
   794     ca         1      MOL     C            794   -0.15000000   12.010736
   795     ca         1      MOL     C            795   -0.15000000   12.010736
   796     c3         1      MOL     C            796    0.14350000   12.010736
   797     ha         1      MOL     H            797    0.15000000    1.007941
   798     ha         1      MOL     H            798    0.15000000    1.007941
   799     ha         1      MOL     H            799    0.15000000    1.007941
   800     ha         1      MOL     H            800    0.15000000    1.007941
   801     ha         1      MOL     H            801    0.15000000    1.007941
   802     ha         1      MOL     H            802    0.15000000    1.007941
   803     ha         1      MOL     H            803    0.15000000    1.007941
   804     hn         1      MOL     H            804    0.37000000    1.007941
   805     ha         1      MOL     H            805    0.15000000    1.007941
   806     ha         1      MOL     H            806    0.15000000    1.007941
   807     ha         1      MOL     H            807    0.15000000    1.007941
   808     ha         1      MOL     H            808    0.15000000    1.007941
   809     ha         1      MOL     H            809    0.15000000    1.007941
   810     ha         1      MOL     H            810    0.15000000    1.007941
   811     hn         1      MOL     H            811    0.37000000    1.007941
   812     ha         1      MOL     H            812    0.15000000    1.007941
   813     ha         1      MOL     H            813    0.15000000    1.007941
   814     ha         1      MOL     H            814    0.15000000    1.007941
   815     ha         1      MOL     H            815    0.15000000    1.007941
   816     ha         1      MOL     H            816    0.15000000    1.007941
   817     ha         1      MOL     H            817    0.15000000    1.007941
   818     ha         1      MOL     H            818    0.15000000    1.007941
   819     ha         1      MOL     H            819    0.15000000    1.007941
   820     ha         1      MOL     H            820    0.15000000    1.007941
   821     ha         1      MOL     H            821    0.15000000    1.007941
   822     ha         1      MOL     H            822    0.15000000    1.007941
   823     ha         1      MOL     H            823    0.15000000    1.007941
   824     hn         1      MOL     H            824    0.37000000    1.007941
   825     ha         1      MOL     H            825    0.15000000    1.007941
   826     ha         1      MOL     H            826    0.15000000    1.007941
   827     ha         1      MOL     H            827    0.15000000    1.007941
   828     ha         1      MOL     H            828    0.15000000    1.007941
   829     ha         1      MOL     H            829    0.15000000    1.007941
   830     ha         1      MOL     H            830    0.15000000    1.007941
   831     ha         1      MOL     H            831    0.15000000    1.007941
   832     hc         1      MOL     H            832    0.00000000    1.007941
   833     hc         1      MOL     H            833    0.00000000    1.007941
   834     hc         1      MOL     H            834    0.00000000    1.007941
   835     cp         1      MOL     C            835    0.00000000   12.010736
   836     ca         1      MOL     C            836   -0.15000000   12.010736
   837     ca         1      MOL     C            837   -0.15000000   12.010736
   838     ca         1      MOL     C            838    0.08620000   12.010736
   839     ca         1      MOL     C            839    0.08620000   12.010736
   840     ca         1      MOL     C            840   -0.15000000   12.010736
   841     c          1      MOL     C            841    0.54380000   12.010736
   842     o          1      MOL     O            842   -0.57000000   15.999405
   843     n          1      MOL     N            843   -0.23700000   14.006703
   844     c          1      MOL     C            844    0.54380000   12.010736
   845     o          1      MOL     O            845   -0.57000000   15.999405
   846     ca         1      MOL     C            846    0.11700000   12.010736
   847     ca         1      MOL     C            847   -0.15000000   12.010736
   848     ca         1      MOL     C            848   -0.15000000   12.010736
   849     ca         1      MOL     C            849    0.11700000   12.010736
   850     ca         1      MOL     C            850   -0.15000000   12.010736
   851     ca         1      MOL     C            851   -0.15000000   12.010736
   852     n          1      MOL     N            852   -0.54700000   14.006703
   853     c          1      MOL     C            853    0.54380000   12.010736
   854     o          1      MOL     O            854   -0.57000000   15.999405
   855     ca         1      MOL     C            855    0.08620000   12.010736
   856     ca         1      MOL     C            856   -0.15000000   12.010736
   857     ca         1      MOL     C            857   -0.15000000   12.010736
   858     ca         1      MOL     C            858   -0.14350000   12.010736
   859     ca         1      MOL     C            859   -0.15000000   12.010736
   860     ca         1      MOL     C            860    0.11700000   12.010736
   861     n          1      MOL     N            861   -0.23700000   14.006703
   862     c          1      MOL     C            862    0.54380000   12.010736
   863     o          1      MOL     O            863   -0.57000000   15.999405
   864     ca         1      MOL     C            864    0.08620000   12.010736
   865     ca         1      MOL     C            865    0.08620000   12.010736
   866     c          1      MOL     C            866    0.54380000   12.010736
   867     o          1      MOL     O            867   -0.57000000   15.999405
   868     ca         1      MOL     C            868   -0.15000000   12.010736
   869     ca         1      MOL     C            869    0.08620000   12.010736
   870     ca         1      MOL     C            870   -0.15000000   12.010736
   871     ca         1      MOL     C            871   -0.15000000   12.010736
   872     c          1      MOL     C            872    0.54380000   12.010736
   873     o          1      MOL     O            873   -0.57000000   15.999405
   874     n          1      MOL     N            874   -0.54700000   14.006703
   875     ca         1      MOL     C            875    0.11700000   12.010736
   876     ca         1      MOL     C            876   -0.15000000   12.010736
   877     ca         1      MOL     C            877   -0.15000000   12.010736
   878     ca         1      MOL     C            878    0.08250000   12.010736
   879     ca         1      MOL     C            879   -0.15000000   12.010736
   880     ca         1      MOL     C            880   -0.15000000   12.010736
   881     os         1      MOL     O            881   -0.16500000   15.999405
   882     ca         1      MOL     C            882    0.08250000   12.010736
   883     ca         1      MOL     C            883   -0.15000000   12.010736
   884     ca         1      MOL     C            884   -0.15000000   12.010736
   885     ca         1      MOL     C            885   -0.15000000   12.010736
   886     ca         1      MOL     C            886   -0.15000000   12.010736
   887     ca         1      MOL     C            887    0.08250000   12.010736
   888     os         1      MOL     O            888   -0.16500000   15.999405
   889     ca         1      MOL     C            889    0.08250000   12.010736
   890     ca         1      MOL     C            890   -0.15000000   12.010736
   891     ca         1      MOL     C            891   -0.15000000   12.010736
   892     ca         1      MOL     C            892    0.11700000   12.010736
   893     ca         1      MOL     C            893   -0.15000000   12.010736
   894     ca         1      MOL     C            894   -0.15000000   12.010736
   895     n          1      MOL     N            895   -0.54700000   14.006703
   896     c          1      MOL     C            896    0.54380000   12.010736
   897     o          1      MOL     O            897   -0.57000000   15.999405
   898     ca         1      MOL     C            898    0.08620000   12.010736
   899     ca         1      MOL     C            899   -0.15000000   12.010736
   900     ca         1      MOL     C            900   -0.15000000   12.010736
   901     ca         1      MOL     C            901    0.11700000   12.010736
   902     ca         1      MOL     C            902   -0.15000000   12.010736
   903     ca         1      MOL     C            903   -0.15000000   12.010736
   904     n          1      MOL     N            904   -0.23700000   14.006703
   905     c          1      MOL     C            905    0.54380000   12.010736
   906     o          1      MOL     O            906   -0.57000000   15.999405
   907     ca         1      MOL     C            907    0.08620000   12.010736
   908     ca         1      MOL     C            908    0.08620000   12.010736
   909     c          1      MOL     C            909    0.54380000   12.010736
   910     o          1      MOL     O            910   -0.57000000   15.999405
   911     ca         1      MOL     C            911   -0.15000000   12.010736
   912     cp         1      MOL     C            912    0.00000000   12.010736
   913     ca         1      MOL     C            913   -0.15000000   12.010736
   914     ca         1      MOL     C            914   -0.15000000   12.010736
   915     c3         1      MOL     C            915    0.14350000   12.010736
   916     ha         1      MOL     H            916    0.15000000    1.007941
   917     ha         1      MOL     H            917    0.15000000    1.007941
   918     ha         1      MOL     H            918    0.15000000    1.007941
   919     ha         1      MOL     H            919    0.15000000    1.007941
   920     ha         1      MOL     H            920    0.15000000    1.007941
   921     ha         1      MOL     H            921    0.15000000    1.007941
   922     ha         1      MOL     H            922    0.15000000    1.007941
   923     hn         1      MOL     H            923    0.37000000    1.007941
   924     ha         1      MOL     H            924    0.15000000    1.007941
   925     ha         1      MOL     H            925    0.15000000    1.007941
   926     ha         1      MOL     H            926    0.15000000    1.007941
   927     ha         1      MOL     H            927    0.15000000    1.007941
   928     ha         1      MOL     H            928    0.15000000    1.007941
   929     ha         1      MOL     H            929    0.15000000    1.007941
   930     hn         1      MOL     H            930    0.37000000    1.007941
   931     ha         1      MOL     H            931    0.15000000    1.007941
   932     ha         1      MOL     H            932    0.15000000    1.007941
   933     ha         1      MOL     H            933    0.15000000    1.007941
   934     ha         1      MOL     H            934    0.15000000    1.007941
   935     ha         1      MOL     H            935    0.15000000    1.007941
   936     ha         1      MOL     H            936    0.15000000    1.007941
   937     ha         1      MOL     H            937    0.15000000    1.007941
   938     ha         1      MOL     H            938    0.15000000    1.007941
   939     ha         1      MOL     H            939    0.15000000    1.007941
   940     ha         1      MOL     H            940    0.15000000    1.007941
   941     ha         1      MOL     H            941    0.15000000    1.007941
   942     ha         1      MOL     H            942    0.15000000    1.007941
   943     hn         1      MOL     H            943    0.37000000    1.007941
   944     ha         1      MOL     H            944    0.15000000    1.007941
   945     ha         1      MOL     H            945    0.15000000    1.007941
   946     ha         1      MOL     H            946    0.15000000    1.007941
   947     ha         1      MOL     H            947    0.15000000    1.007941
   948     ha         1      MOL     H            948    0.15000000    1.007941
   949     ha         1      MOL     H            949    0.15000000    1.007941
   950     ha         1      MOL     H            950    0.15000000    1.007941
   951     hc         1      MOL     H            951    0.00000000    1.007941
   952     hc         1      MOL     H            952    0.00000000    1.007941
   953     hc         1      MOL     H            953    0.00000000    1.007941
   954     cp         1      MOL     C            954    0.00000000   12.010736
   955     ca         1      MOL     C            955   -0.15000000   12.010736
   956     ca         1      MOL     C            956   -0.15000000   12.010736
   957     ca         1      MOL     C            957    0.08620000   12.010736
   958     ca         1      MOL     C            958    0.08620000   12.010736
   959     ca         1      MOL     C            959   -0.15000000   12.010736
   960     c          1      MOL     C            960    0.54380000   12.010736
   961     o          1      MOL     O            961   -0.57000000   15.999405
   962     n          1      MOL     N            962   -0.23700000   14.006703
   963     c          1      MOL     C            963    0.54380000   12.010736
   964     o          1      MOL     O            964   -0.57000000   15.999405
   965     ca         1      MOL     C            965    0.11700000   12.010736
   966     ca         1      MOL     C            966   -0.15000000   12.010736
   967     ca         1      MOL     C            967   -0.15000000   12.010736
   968     ca         1      MOL     C            968    0.11700000   12.010736
   969     ca         1      MOL     C            969   -0.15000000   12.010736
   970     ca         1      MOL     C            970   -0.15000000   12.010736
   971     n          1      MOL     N            971   -0.54700000   14.006703
   972     c          1      MOL     C            972    0.54380000   12.010736
   973     o          1      MOL     O            973   -0.57000000   15.999405
   974     ca         1      MOL     C            974    0.08620000   12.010736
   975     ca         1      MOL     C            975   -0.15000000   12.010736
   976     ca         1      MOL     C            976   -0.15000000   12.010736
   977     ca         1      MOL     C            977   -0.14350000   12.010736
   978     ca         1      MOL     C            978   -0.15000000   12.010736
   979     ca         1      MOL     C            979    0.11700000   12.010736
   980     n          1      MOL     N            980   -0.23700000   14.006703
   981     c          1      MOL     C            981    0.54380000   12.010736
   982     o          1      MOL     O            982   -0.57000000   15.999405
   983     ca         1      MOL     C            983    0.08620000   12.010736
   984     ca         1      MOL     C            984    0.08620000   12.010736
   985     c          1      MOL     C            985    0.54380000   12.010736
   986     o          1      MOL     O            986   -0.57000000   15.999405
   987     ca         1      MOL     C            987   -0.15000000   12.010736
   988     ca         1      MOL     C            988    0.08620000   12.010736
   989     ca         1      MOL     C            989   -0.15000000   12.010736
   990     ca         1      MOL     C            990   -0.15000000   12.010736
   991     c          1      MOL     C            991    0.54380000   12.010736
   992     o          1      MOL     O            992   -0.57000000   15.999405
   993     n          1      MOL     N            993   -0.54700000   14.006703
   994     ca         1      MOL     C            994    0.11700000   12.010736
   995     ca         1      MOL     C            995   -0.15000000   12.010736
   996     ca         1      MOL     C            996   -0.15000000   12.010736
   997     ca         1      MOL     C            997    0.08250000   12.010736
   998     ca         1      MOL     C            998   -0.15000000   12.010736
   999     ca         1      MOL     C            999   -0.15000000   12.010736
  1000     os         1      MOL     O           1000   -0.16500000   15.999405
  1001     ca         1      MOL     C           1001    0.08250000   12.010736
  1002     ca         1      MOL     C           1002   -0.15000000   12.010736
  1003     ca         1      MOL     C           1003   -0.15000000   12.010736
  1004     ca         1      MOL     C           1004   -0.15000000   12.010736
  1005     ca         1      MOL     C           1005   -0.15000000   12.010736
  1006     ca         1      MOL     C           1006    0.08250000   12.010736
  1007     os         1      MOL     O           1007   -0.16500000   15.999405
  1008     ca         1      MOL     C           1008    0.08250000   12.010736
  1009     ca         1      MOL     C           1009   -0.15000000   12.010736
  1010     ca         1      MOL     C           1010   -0.15000000   12.010736
  1011     ca         1      MOL     C           1011    0.11700000   12.010736
  1012     ca         1      MOL     C           1012   -0.15000000   12.010736
  1013     ca         1      MOL     C           1013   -0.15000000   12.010736
  1014     n          1      MOL     N           1014   -0.54700000   14.006703
  1015     c          1      MOL     C           1015    0.54380000   12.010736
  1016     o          1      MOL     O           1016   -0.57000000   15.999405
  1017     ca         1      MOL     C           1017    0.08620000   12.010736
  1018     ca         1      MOL     C           1018   -0.15000000   12.010736
  1019     ca         1      MOL     C           1019   -0.15000000   12.010736
  1020     ca         1      MOL     C           1020    0.11700000   12.010736
  1021     ca         1      MOL     C           1021   -0.15000000   12.010736
  1022     ca         1      MOL     C           1022   -0.15000000   12.010736
  1023     n          1      MOL     N           1023   -0.23700000   14.006703
  1024     c          1      MOL     C           1024    0.54380000   12.010736
  1025     o          1      MOL     O           1025   -0.57000000   15.999405
  1026     ca         1      MOL     C           1026    0.08620000   12.010736
  1027     ca         1      MOL     C           1027    0.08620000   12.010736
  1028     c          1      MOL     C           1028    0.54380000   12.010736
  1029     o          1      MOL     O           1029   -0.57000000   15.999405
  1030     ca         1      MOL     C           1030   -0.15000000   12.010736
  1031     cp         1      MOL     C           1031    0.00000000   12.010736
  1032     ca         1      MOL     C           1032   -0.15000000   12.010736
  1033     ca         1      MOL     C           1033   -0.15000000   12.010736
  1034     c3         1      MOL     C           1034    0.14350000   12.010736
  1035     ha         1      MOL     H           1035    0.15000000    1.007941
  1036     ha         1      MOL     H           1036    0.15000000    1.007941
  1037     ha         1      MOL     H           1037    0.15000000    1.007941
  1038     ha         1      MOL     H           1038    0.15000000    1.007941
  1039     ha         1      MOL     H           1039    0.15000000    1.007941
  1040     ha         1      MOL     H           1040    0.15000000    1.007941
  1041     ha         1      MOL     H           1041    0.15000000    1.007941
  1042     hn         1      MOL     H           1042    0.37000000    1.007941
  1043     ha         1      MOL     H           1043    0.15000000    1.007941
  1044     ha         1      MOL     H           1044    0.15000000    1.007941
  1045     ha         1      MOL     H           1045    0.15000000    1.007941
  1046     ha         1      MOL     H           1046    0.15000000    1.007941
  1047     ha         1      MOL     H           1047    0.15000000    1.007941
  1048     ha         1      MOL     H           1048    0.15000000    1.007941
  1049     hn         1      MOL     H           1049    0.37000000    1.007941
  1050     ha         1      MOL     H           1050    0.15000000    1.007941
  1051     ha         1      MOL     H           1051    0.15000000    1.007941
  1052     ha         1      MOL     H           1052    0.15000000    1.007941
  1053     ha         1      MOL     H           1053    0.15000000    1.007941
  1054     ha         1      MOL     H           1054    0.15000000    1.007941
  1055     ha         1      MOL     H           1055    0.15000000    1.007941
  1056     ha         1      MOL     H           1056    0.15000000    1.007941
  1057     ha         1      MOL     H           1057    0.15000000    1.007941
  1058     ha         1      MOL     H           1058    0.15000000    1.007941
  1059     ha         1      MOL     H           1059    0.15000000    1.007941
  1060     ha         1      MOL     H           1060    0.15000000    1.007941
  1061     ha         1      MOL     H           1061    0.15000000    1.007941
  1062     hn         1      MOL     H           1062    0.37000000    1.007941
  1063     ha         1      MOL     H           1063    0.15000000    1.007941
  1064     ha         1      MOL     H           1064    0.15000000    1.007941
  1065     ha         1      MOL     H           1065    0.15000000    1.007941
  1066     ha         1      MOL     H           1066    0.15000000    1.007941
  1067     ha         1      MOL     H           1067    0.15000000    1.007941
  1068     ha         1      MOL     H           1068    0.15000000    1.007941
  1069     ha         1      MOL     H           1069    0.15000000    1.007941
  1070     hc         1      MOL     H           1070    0.00000000    1.007941
  1071     hc         1      MOL     H           1071    0.00000000    1.007941
  1072     hc         1      MOL     H           1072    0.00000000    1.007941
  1073     cp         1      MOL     C           1073    0.00000000   12.010736
  1074     ca         1      MOL     C           1074   -0.15000000   12.010736
  1075     ca         1      MOL     C           1075   -0.15000000   12.010736
  1076     ca         1      MOL     C           1076    0.08620000   12.010736
  1077     ca         1      MOL     C           1077    0.08620000   12.010736
  1078     ca         1      MOL     C           1078   -0.15000000   12.010736
  1079     c          1      MOL     C           1079    0.54380000   12.010736
  1080     o          1      MOL     O           1080   -0.57000000   15.999405
  1081     n          1      MOL     N           1081   -0.23700000   14.006703
  1082     c          1      MOL     C           1082    0.54380000   12.010736
  1083     o          1      MOL     O           1083   -0.57000000   15.999405
  1084     ca         1      MOL     C           1084    0.11700000   12.010736
  1085     ca         1      MOL     C           1085   -0.15000000   12.010736
  1086     ca         1      MOL     C           1086   -0.15000000   12.010736
  1087     ca         1      MOL     C           1087    0.11700000   12.010736
  1088     ca         1      MOL     C           1088   -0.15000000   12.010736
  1089     ca         1      MOL     C           1089   -0.15000000   12.010736
  1090     n          1      MOL     N           1090   -0.54700000   14.006703
  1091     c          1      MOL     C           1091    0.54380000   12.010736
  1092     o          1      MOL     O           1092   -0.57000000   15.999405
  1093     ca         1      MOL     C           1093    0.08620000   12.010736
  1094     ca         1      MOL     C           1094   -0.15000000   12.010736
  1095     ca         1      MOL     C           1095   -0.15000000   12.010736
  1096     ca         1      MOL     C           1096   -0.14350000   12.010736
  1097     ca         1      MOL     C           1097   -0.15000000   12.010736
  1098     ca         1      MOL     C           1098    0.11700000   12.010736
  1099     n          1      MOL     N           1099   -0.23700000   14.006703
  1100     c          1      MOL     C           1100    0.54380000   12.010736
  1101     o          1      MOL     O           1101   -0.57000000   15.999405
  1102     ca         1      MOL     C           1102    0.08620000   12.010736
  1103     ca         1      MOL     C           1103    0.08620000   12.010736
  1104     c          1      MOL     C           1104    0.54380000   12.010736
  1105     o          1      MOL     O           1105   -0.57000000   15.999405
  1106     ca         1      MOL     C           1106   -0.15000000   12.010736
  1107     ca         1      MOL     C           1107    0.08620000   12.010736
  1108     ca         1      MOL     C           1108   -0.15000000   12.010736
  1109     ca         1      MOL     C           1109   -0.15000000   12.010736
  1110     c          1      MOL     C           1110    0.54380000   12.010736
  1111     o          1      MOL     O           1111   -0.57000000   15.999405
  1112     n          1      MOL     N           1112   -0.54700000   14.006703
  1113     ca         1      MOL     C           1113    0.11700000   12.010736
  1114     ca         1      MOL     C           1114   -0.15000000   12.010736
  1115     ca         1      MOL     C           1115   -0.15000000   12.010736
  1116     ca         1      MOL     C           1116    0.08250000   12.010736
  1117     ca         1      MOL     C           1117   -0.15000000   12.010736
  1118     ca         1      MOL     C           1118   -0.15000000   12.010736
  1119     os         1      MOL     O           1119   -0.16500000   15.999405
  1120     ca         1      MOL     C           1120    0.08250000   12.010736
  1121     ca         1      MOL     C           1121   -0.15000000   12.010736
  1122     ca         1      MOL     C           1122   -0.15000000   12.010736
  1123     ca         1      MOL     C           1123   -0.15000000   12.010736
  1124     ca         1      MOL     C           1124   -0.15000000   12.010736
  1125     ca         1      MOL     C           1125    0.08250000   12.010736
  1126     os         1      MOL     O           1126   -0.16500000   15.999405
  1127     ca         1      MOL     C           1127    0.08250000   12.010736
  1128     ca         1      MOL     C           1128   -0.15000000   12.010736
  1129     ca         1      MOL     C           1129   -0.15000000   12.010736
  1130     ca         1      MOL     C           1130    0.11700000   12.010736
  1131     ca         1      MOL     C           1131   -0.15000000   12.010736
  1132     ca         1      MOL     C           1132   -0.15000000   12.010736
  1133     n          1      MOL     N           1133   -0.54700000   14.006703
  1134     c          1      MOL     C           1134    0.54380000   12.010736
  1135     o          1      MOL     O           1135   -0.57000000   15.999405
  1136     ca         1      MOL     C           1136    0.08620000   12.010736
  1137     ca         1      MOL     C           1137   -0.15000000   12.010736
  1138     ca         1      MOL     C           1138   -0.15000000   12.010736
  1139     ca         1      MOL     C           1139    0.11700000   12.010736
  1140     ca         1      MOL     C           1140   -0.15000000   12.010736
  1141     ca         1      MOL     C           1141   -0.15000000   12.010736
  1142     n          1      MOL     N           1142   -0.23700000   14.006703
  1143     c          1      MOL     C           1143    0.54380000   12.010736
  1144     o          1      MOL     O           1144   -0.57000000   15.999405
  1145     ca         1      MOL     C           1145    0.08620000   12.010736
  1146     ca         1      MOL     C           1146    0.08620000   12.010736
  1147     c          1      MOL     C           1147    0.54380000   12.010736
  1148     o          1      MOL     O           1148   -0.57000000   15.999405
  1149     ca         1      MOL     C           1149   -0.15000000   12.010736
  1150     cp         1      MOL     C           1150    0.00000000   12.010736
  1151     ca         1      MOL     C           1151   -0.15000000   12.010736
  1152     ca         1      MOL     C           1152   -0.15000000   12.010736
  1153     c3         1      MOL     C           1153    0.14350000   12.010736
  1154     ha         1      MOL     H           1154    0.15000000    1.007941
  1155     ha         1      MOL     H           1155    0.15000000    1.007941
  1156     ha         1      MOL     H           1156    0.15000000    1.007941
  1157     ha         1      MOL     H           1157    0.15000000    1.007941
  1158     ha         1      MOL     H           1158    0.15000000    1.007941
  1159     ha         1      MOL     H           1159    0.15000000    1.007941
  1160     ha         1      MOL     H           1160    0.15000000    1.007941
  1161     hn         1      MOL     H           1161    0.37000000    1.007941
  1162     ha         1      MOL     H           1162    0.15000000    1.007941
  1163     ha         1      MOL     H           1163    0.15000000    1.007941
  1164     ha         1      MOL     H           1164    0.15000000    1.007941
  1165     ha         1      MOL     H           1165    0.15000000    1.007941
  1166     ha         1      MOL     H           1166    0.15000000    1.007941
  1167     ha         1      MOL     H           1167    0.15000000    1.007941
  1168     hn         1      MOL     H           1168    0.37000000    1.007941
  1169     ha         1      MOL     H           1169    0.15000000    1.007941
  1170     ha         1      MOL     H           1170    0.15000000    1.007941
  1171     ha         1      MOL     H           1171    0.15000000    1.007941
  1172     ha         1      MOL     H           1172    0.15000000    1.007941
  1173     ha         1      MOL     H           1173    0.15000000    1.007941
  1174     ha         1      MOL     H           1174    0.15000000    1.007941
  1175     ha         1      MOL     H           1175    0.15000000    1.007941
  1176     ha         1      MOL     H           1176    0.15000000    1.007941
  1177     ha         1      MOL     H           1177    0.15000000    1.007941
  1178     ha         1      MOL     H           1178    0.15000000    1.007941
  1179     ha         1      MOL     H           1179    0.15000000    1.007941
  1180     ha         1      MOL     H           1180    0.15000000    1.007941
  1181     hn         1      MOL     H           1181    0.37000000    1.007941
  1182     ha         1      MOL     H           1182    0.15000000    1.007941
  1183     ha         1      MOL     H           1183    0.15000000    1.007941
  1184     ha         1      MOL     H           1184    0.15000000    1.007941
  1185     ha         1      MOL     H           1185    0.15000000    1.007941
  1186     ha         1      MOL     H           1186    0.15000000    1.007941
  1187     ha         1      MOL     H           1187    0.15000000    1.007941
  1188     ha         1      MOL     H           1188    0.15000000    1.007941
  1189     hc         1      MOL     H           1189    0.00000000    1.007941
  1190     hc         1      MOL     H           1190    0.00000000    1.007941
  1191     hc         1      MOL     H           1191    0.00000000    1.007941
  1192     cp         1      MOL     C           1192    0.00000000   12.010736
  1193     ca         1      MOL     C           1193   -0.15000000   12.010736
  1194     ca         1      MOL     C           1194   -0.15000000   12.010736
  1195     ca         1      MOL     C           1195    0.08620000   12.010736
  1196     ca         1      MOL     C           1196    0.08620000   12.010736
  1197     ca         1      MOL     C           1197   -0.15000000   12.010736
  1198     c          1      MOL     C           1198    0.54380000   12.010736
  1199     o          1      MOL     O           1199   -0.57000000   15.999405
  1200     n          1      MOL     N           1200   -0.23700000   14.006703
  1201     c          1      MOL     C           1201    0.54380000   12.010736
  1202     o          1      MOL     O           1202   -0.57000000   15.999405
  1203     ca         1      MOL     C           1203    0.11700000   12.010736
  1204     ca         1      MOL     C           1204   -0.15000000   12.010736
  1205     ca         1      MOL     C           1205   -0.15000000   12.010736
  1206     ca         1      MOL     C           1206    0.11700000   12.010736
  1207     ca         1      MOL     C           1207   -0.15000000   12.010736
  1208     ca         1      MOL     C           1208   -0.15000000   12.010736
  1209     n          1      MOL     N           1209   -0.54700000   14.006703
  1210     c          1      MOL     C           1210    0.54380000   12.010736
  1211     o          1      MOL     O           1211   -0.57000000   15.999405
  1212     ca         1      MOL     C           1212    0.08620000   12.010736
  1213     ca         1      MOL     C           1213   -0.15000000   12.010736
  1214     ca         1      MOL     C           1214   -0.15000000   12.010736
  1215     ca         1      MOL     C           1215   -0.14350000   12.010736
  1216     ca         1      MOL     C           1216   -0.15000000   12.010736
  1217     ca         1      MOL     C           1217    0.11700000   12.010736
  1218     n          1      MOL     N           1218   -0.23700000   14.006703
  1219     c          1      MOL     C           1219    0.54380000   12.010736
  1220     o          1      MOL     O           1220   -0.57000000   15.999405
  1221     ca         1      MOL     C           1221    0.08620000   12.010736
  1222     ca         1      MOL     C           1222    0.08620000   12.010736
  1223     c          1      MOL     C           1223    0.54380000   12.010736
  1224     o          1      MOL     O           1224   -0.57000000   15.999405
  1225     ca         1      MOL     C           1225   -0.15000000   12.010736
  1226     ca         1      MOL     C           1226    0.08620000   12.010736
  1227     ca         1      MOL     C           1227   -0.15000000   12.010736
  1228     ca         1      MOL     C           1228   -0.15000000   12.010736
  1229     c          1      MOL     C           1229    0.54380000   12.010736
  1230     o          1      MOL     O           1230   -0.57000000   15.999405
  1231     n          1      MOL     N           1231   -0.54700000   14.006703
  1232     ca         1      MOL     C           1232    0.11700000   12.010736
  1233     ca         1      MOL     C           1233   -0.15000000   12.010736
  1234     ca         1      MOL     C           1234   -0.15000000   12.010736
  1235     ca         1      MOL     C           1235    0.08250000   12.010736
  1236     ca         1      MOL     C           1236   -0.15000000   12.010736
  1237     ca         1      MOL     C           1237   -0.15000000   12.010736
  1238     os         1      MOL     O           1238   -0.16500000   15.999405
  1239     ca         1      MOL     C           1239    0.08250000   12.010736
  1240     ca         1      MOL     C           1240   -0.15000000   12.010736
  1241     ca         1      MOL     C           1241   -0.15000000   12.010736
  1242     ca         1      MOL     C           1242   -0.15000000   12.010736
  1243     ca         1      MOL     C           1243   -0.15000000   12.010736
  1244     ca         1      MOL     C           1244    0.08250000   12.010736
  1245     os         1      MOL     O           1245   -0.16500000   15.999405
  1246     ca         1      MOL     C           1246    0.08250000   12.010736
  1247     ca         1      MOL     C           1247   -0.15000000   12.010736
  1248     ca         1      MOL     C           1248   -0.15000000   12.010736
  1249     ca         1      MOL     C           1249    0.11700000   12.010736
  1250     ca         1      MOL     C           1250   -0.15000000   12.010736
  1251     ca         1      MOL     C           1251   -0.15000000   12.010736
  1252     n          1      MOL     N           1252   -0.54700000   14.006703
  1253     c          1      MOL     C           1253    0.54380000   12.010736
  1254     o          1      MOL     O           1254   -0.57000000   15.999405
  1255     ca         1      MOL     C           1255    0.08620000   12.010736
  1256     ca         1      MOL     C           1256   -0.15000000   12.010736
  1257     ca         1      MOL     C           1257   -0.15000000   12.010736
  1258     ca         1      MOL     C           1258    0.11700000   12.010736
  1259     ca         1      MOL     C           1259   -0.15000000   12.010736
  1260     ca         1      MOL     C           1260   -0.15000000   12.010736
  1261     n          1      MOL     N           1261   -0.23700000   14.006703
  1262     c          1      MOL     C           1262    0.54380000   12.010736
  1263     o          1      MOL     O           1263   -0.57000000   15.999405
  1264     ca         1      MOL     C           1264    0.08620000   12.010736
  1265     ca         1      MOL     C           1265    0.08620000   12.010736
  1266     c          1      MOL     C           1266    0.54380000   12.010736
  1267     o          1      MOL     O           1267   -0.57000000   15.999405
  1268     ca         1      MOL     C           1268   -0.15000000   12.010736
  1269     cp         1      MOL     C           1269    0.00000000   12.010736
  1270     ca         1      MOL     C           1270   -0.15000000   12.010736
  1271     ca         1      MOL     C           1271   -0.15000000   12.010736
  1272     c3         1      MOL     C           1272    0.14350000   12.010736
  1273     ha         1      MOL     H           1273    0.15000000    1.007941
  1274     ha         1      MOL     H           1274    0.15000000    1.007941
  1275     ha         1      MOL     H           1275    0.15000000    1.007941
  1276     ha         1      MOL     H           1276    0.15000000    1.007941
  1277     ha         1      MOL     H           1277    0.15000000    1.007941
  1278     ha         1      MOL     H           1278    0.15000000    1.007941
  1279     ha         1      MOL     H           1279    0.15000000    1.007941
  1280     hn         1      MOL     H           1280    0.37000000    1.007941
  1281     ha         1      MOL     H           1281    0.15000000    1.007941
  1282     ha         1      MOL     H           1282    0.15000000    1.007941
  1283     ha         1      MOL     H           1283    0.15000000    1.007941
  1284     ha         1      MOL     H           1284    0.15000000    1.007941
  1285     ha         1      MOL     H           1285    0.15000000    1.007941
  1286     ha         1      MOL     H           1286    0.15000000    1.007941
  1287     hn         1      MOL     H           1287    0.37000000    1.007941
  1288     ha         1      MOL     H           1288    0.15000000    1.007941
  1289     ha         1      MOL     H           1289    0.15000000    1.007941
  1290     ha         1      MOL     H           1290    0.15000000    1.007941
  1291     ha         1      MOL     H           1291    0.15000000    1.007941
  1292     ha         1      MOL     H           1292    0.15000000    1.007941
  1293     ha         1      MOL     H           1293    0.15000000    1.007941
  1294     ha         1      MOL     H           1294    0.15000000    1.007941
  1295     ha         1      MOL     H           1295    0.15000000    1.007941
  1296     ha         1      MOL     H           1296    0.15000000    1.007941
  1297     ha         1      MOL     H           1297    0.15000000    1.007941
  1298     ha         1      MOL     H           1298    0.15000000    1.007941
  1299     ha         1      MOL     H           1299    0.15000000    1.007941
  1300     hn         1      MOL     H           1300    0.37000000    1.007941
  1301     ha         1      MOL     H           1301    0.15000000    1.007941
  1302     ha         1      MOL     H           1302    0.15000000    1.007941
  1303     ha         1      MOL     H           1303    0.15000000    1.007941
  1304     ha         1      MOL     H           1304    0.15000000    1.007941
  1305     ha         1      MOL     H           1305    0.15000000    1.007941
  1306     ha         1      MOL     H           1306    0.15000000    1.007941
  1307     ha         1      MOL     H           1307    0.15000000    1.007941
  1308     hc         1      MOL     H           1308    0.00000000    1.007941
  1309     hc         1      MOL     H           1309    0.00000000    1.007941
  1310     hc         1      MOL     H           1310    0.00000000    1.007941
  1311     cp         1      MOL     C           1311    0.00000000   12.010736
  1312     ca         1      MOL     C           1312   -0.15000000   12.010736
  1313     ca         1      MOL     C           1313   -0.15000000   12.010736
  1314     ca         1      MOL     C           1314    0.08620000   12.010736
  1315     ca         1      MOL     C           1315    0.08620000   12.010736
  1316     ca         1      MOL     C           1316   -0.15000000   12.010736
  1317     c          1      MOL     C           1317    0.54380000   12.010736
  1318     o          1      MOL     O           1318   -0.57000000   15.999405
  1319     n          1      MOL     N           1319   -0.23700000   14.006703
  1320     c          1      MOL     C           1320    0.54380000   12.010736
  1321     o          1      MOL     O           1321   -0.57000000   15.999405
  1322     ca         1      MOL     C           1322    0.11700000   12.010736
  1323     ca         1      MOL     C           1323   -0.15000000   12.010736
  1324     ca         1      MOL     C           1324   -0.15000000   12.010736
  1325     ca         1      MOL     C           1325    0.11700000   12.010736
  1326     ca         1      MOL     C           1326   -0.15000000   12.010736
  1327     ca         1      MOL     C           1327   -0.15000000   12.010736
  1328     n          1      MOL     N           1328   -0.54700000   14.006703
  1329     c          1      MOL     C           1329    0.54380000   12.010736
  1330     o          1      MOL     O           1330   -0.57000000   15.999405
  1331     ca         1      MOL     C           1331    0.08620000   12.010736
  1332     ca         1      MOL     C           1332   -0.15000000   12.010736
  1333     ca         1      MOL     C           1333   -0.15000000   12.010736
  1334     ca         1      MOL     C           1334   -0.14350000   12.010736
  1335     ca         1      MOL     C           1335   -0.15000000   12.010736
  1336     ca         1      MOL     C           1336    0.11700000   12.010736
  1337     n          1      MOL     N           1337   -0.23700000   14.006703
  1338     c          1      MOL     C           1338    0.54380000   12.010736
  1339     o          1      MOL     O           1339   -0.57000000   15.999405
  1340     ca         1      MOL     C           1340    0.08620000   12.010736
  1341     ca         1      MOL     C           1341    0.08620000   12.010736
  1342     c          1      MOL     C           1342    0.54380000   12.010736
  1343     o          1      MOL     O           1343   -0.57000000   15.999405
  1344     ca         1      MOL     C           1344   -0.15000000   12.010736
  1345     ca         1      MOL     C           1345    0.08620000   12.010736
  1346     ca         1      MOL     C           1346   -0.15000000   12.010736
  1347     ca         1      MOL     C           1347   -0.15000000   12.010736
  1348     c          1      MOL     C           1348    0.54380000   12.010736
  1349     o          1      MOL     O           1349   -0.57000000   15.999405
  1350     n          1      MOL     N           1350   -0.54700000   14.006703
  1351     ca         1      MOL     C           1351    0.11700000   12.010736
  1352     ca         1      MOL     C           1352   -0.15000000   12.010736
  1353     ca         1      MOL     C           1353   -0.15000000   12.010736
  1354     ca         1      MOL     C           1354    0.08250000   12.010736
  1355     ca         1      MOL     C           1355   -0.15000000   12.010736
  1356     ca         1      MOL     C           1356   -0.15000000   12.010736
  1357     os         1      MOL     O           1357   -0.16500000   15.999405
  1358     ca         1      MOL     C           1358    0.08250000   12.010736
  1359     ca         1      MOL     C           1359   -0.15000000   12.010736
  1360     ca         1      MOL     C           1360   -0.15000000   12.010736
  1361     ca         1      MOL     C           1361   -0.15000000   12.010736
  1362     ca         1      MOL     C           1362   -0.15000000   12.010736
  1363     ca         1      MOL     C           1363    0.08250000   12.010736
  1364     os         1      MOL     O           1364   -0.16500000   15.999405
  1365     ca         1      MOL     C           1365    0.08250000   12.010736
  1366     ca         1      MOL     C           1366   -0.15000000   12.010736
  1367     ca         1      MOL     C           1367   -0.15000000   12.010736
  1368     ca         1      MOL     C           1368    0.11700000   12.010736
  1369     ca         1      MOL     C           1369   -0.15000000   12.010736
  1370     ca         1      MOL     C           1370   -0.15000000   12.010736
  1371     n          1      MOL     N           1371   -0.54700000   14.006703
  1372     c          1      MOL     C           1372    0.54380000   12.010736
  1373     o          1      MOL     O           1373   -0.57000000   15.999405
  1374     ca         1      MOL     C           1374    0.08620000   12.010736
  1375     ca         1      MOL     C           1375   -0.15000000   12.010736
  1376     ca         1      MOL     C           1376   -0.15000000   12.010736
  1377     ca         1      MOL     C           1377    0.11700000   12.010736
  1378     ca         1      MOL     C           1378   -0.15000000   12.010736
  1379     ca         1      MOL     C           1379   -0.15000000   12.010736
  1380     n          1      MOL     N           1380   -0.23700000   14.006703
  1381     c          1      MOL     C           1381    0.54380000   12.010736
  1382     o          1      MOL     O           1382   -0.57000000   15.999405
  1383     ca         1      MOL     C           1383    0.08620000   12.010736
  1384     ca         1      MOL     C           1384    0.08620000   12.010736
  1385     c          1      MOL     C           1385    0.54380000   12.010736
  1386     o          1      MOL     O           1386   -0.57000000   15.999405
  1387     ca         1      MOL     C           1387   -0.15000000   12.010736
  1388     cp         1      MOL     C           1388    0.00000000   12.010736
  1389     ca         1      MOL     C           1389   -0.15000000   12.010736
  1390     ca         1      MOL     C           1390   -0.15000000   12.010736
  1391     c3         1      MOL     C           1391    0.14350000   12.010736
  1392     ha         1      MOL     H           1392    0.15000000    1.007941
  1393     ha         1      MOL     H           1393    0.15000000    1.007941
  1394     ha         1      MOL     H           1394    0.15000000    1.007941
  1395     ha         1      MOL     H           1395    0.15000000    1.007941
  1396     ha         1      MOL     H           1396    0.15000000    1.007941
  1397     ha         1      MOL     H           1397    0.15000000    1.007941
  1398     ha         1      MOL     H           1398    0.15000000    1.007941
  1399     hn         1      MOL     H           1399    0.37000000    1.007941
  1400     ha         1      MOL     H           1400    0.15000000    1.007941
  1401     ha         1      MOL     H           1401    0.15000000    1.007941
  1402     ha         1      MOL     H           1402    0.15000000    1.007941
  1403     ha         1      MOL     H           1403    0.15000000    1.007941
  1404     ha         1      MOL     H           1404    0.15000000    1.007941
  1405     ha         1      MOL     H           1405    0.15000000    1.007941
  1406     hn         1      MOL     H           1406    0.37000000    1.007941
  1407     ha         1      MOL     H           1407    0.15000000    1.007941
  1408     ha         1      MOL     H           1408    0.15000000    1.007941
  1409     ha         1      MOL     H           1409    0.15000000    1.007941
  1410     ha         1      MOL     H           1410    0.15000000    1.007941
  1411     ha         1      MOL     H           1411    0.15000000    1.007941
  1412     ha         1      MOL     H           1412    0.15000000    1.007941
  1413     ha         1      MOL     H           1413    0.15000000    1.007941
  1414     ha         1      MOL     H           1414    0.15000000    1.007941
  1415     ha         1      MOL     H           1415    0.15000000    1.007941
  1416     ha         1      MOL     H           1416    0.15000000    1.007941
  1417     ha         1      MOL     H           1417    0.15000000    1.007941
  1418     ha         1      MOL     H           1418    0.15000000    1.007941
  1419     hn         1      MOL     H           1419    0.37000000    1.007941
  1420     ha         1      MOL     H           1420    0.15000000    1.007941
  1421     ha         1      MOL     H           1421    0.15000000    1.007941
  1422     ha         1      MOL     H           1422    0.15000000    1.007941
  1423     ha         1      MOL     H           1423    0.15000000    1.007941
  1424     ha         1      MOL     H           1424    0.15000000    1.007941
  1425     ha         1      MOL     H           1425    0.15000000    1.007941
  1426     ha         1      MOL     H           1426    0.15000000    1.007941
  1427     hc         1      MOL     H           1427    0.00000000    1.007941
  1428     hc         1      MOL     H           1428    0.00000000    1.007941
  1429     hc         1      MOL     H           1429    0.00000000    1.007941
  1430     cp         1      MOL     C           1430    0.00000000   12.010736
  1431     ca         1      MOL     C           1431   -0.15000000   12.010736
  1432     ca         1      MOL     C           1432   -0.15000000   12.010736
  1433     ca         1      MOL     C           1433    0.08620000   12.010736
  1434     ca         1      MOL     C           1434    0.08620000   12.010736
  1435     ca         1      MOL     C           1435   -0.15000000   12.010736
  1436     c          1      MOL     C           1436    0.54380000   12.010736
  1437     o          1      MOL     O           1437   -0.57000000   15.999405
  1438     n          1      MOL     N           1438   -0.23700000   14.006703
  1439     c          1      MOL     C           1439    0.54380000   12.010736
  1440     o          1      MOL     O           1440   -0.57000000   15.999405
  1441     ca         1      MOL     C           1441    0.11700000   12.010736
  1442     ca         1      MOL     C           1442   -0.15000000   12.010736
  1443     ca         1      MOL     C           1443   -0.15000000   12.010736
  1444     ca         1      MOL     C           1444    0.11700000   12.010736
  1445     ca         1      MOL     C           1445   -0.15000000   12.010736
  1446     ca         1      MOL     C           1446   -0.15000000   12.010736
  1447     n          1      MOL     N           1447   -0.54700000   14.006703
  1448     c          1      MOL     C           1448    0.54380000   12.010736
  1449     o          1      MOL     O           1449   -0.57000000   15.999405
  1450     ca         1      MOL     C           1450    0.08620000   12.010736
  1451     ca         1      MOL     C           1451   -0.15000000   12.010736
  1452     ca         1      MOL     C           1452   -0.15000000   12.010736
  1453     ca         1      MOL     C           1453   -0.14350000   12.010736
  1454     ca         1      MOL     C           1454   -0.15000000   12.010736
  1455     ca         1      MOL     C           1455    0.11700000   12.010736
  1456     n          1      MOL     N           1456   -0.23700000   14.006703
  1457     c          1      MOL     C           1457    0.54380000   12.010736
  1458     o          1      MOL     O           1458   -0.57000000   15.999405
  1459     ca         1      MOL     C           1459    0.08620000   12.010736
  1460     ca         1      MOL     C           1460    0.08620000   12.010736
  1461     c          1      MOL     C           1461    0.54380000   12.010736
  1462     o          1      MOL     O           1462   -0.57000000   15.999405
  1463     ca         1      MOL     C           1463   -0.15000000   12.010736
  1464     ca         1      MOL     C           1464    0.08620000   12.010736
  1465     ca         1      MOL     C           1465   -0.15000000   12.010736
  1466     ca         1      MOL     C           1466   -0.15000000   12.010736
  1467     c          1      MOL     C           1467    0.54380000   12.010736
  1468     o          1      MOL     O           1468   -0.57000000   15.999405
  1469     n          1      MOL     N           1469   -0.54700000   14.006703
  1470     ca         1      MOL     C           1470    0.11700000   12.010736
  1471     ca         1      MOL     C           1471   -0.15000000   12.010736
  1472     ca         1      MOL     C           1472   -0.15000000   12.010736
  1473     ca         1      MOL     C           1473    0.08250000   12.010736
  1474     ca         1      MOL     C           1474   -0.15000000   12.010736
  1475     ca         1      MOL     C           1475   -0.15000000   12.010736
  1476     os         1      MOL     O           1476   -0.16500000   15.999405
  1477     ca         1      MOL     C           1477    0.08250000   12.010736
  1478     ca         1      MOL     C           1478   -0.15000000   12.010736
  1479     ca         1      MOL     C           1479   -0.15000000   12.010736
  1480     ca         1      MOL     C           1480   -0.15000000   12.010736
  1481     ca         1      MOL     C           1481   -0.15000000   12.010736
  1482     ca         1      MOL     C           1482    0.08250000   12.010736
  1483     os         1      MOL     O           1483   -0.16500000   15.999405
  1484     ca         1      MOL     C           1484    0.08250000   12.010736
  1485     ca         1      MOL     C           1485   -0.15000000   12.010736
  1486     ca         1      MOL     C           1486   -0.15000000   12.010736
  1487     ca         1      MOL     C           1487    0.11700000   12.010736
  1488     ca         1      MOL     C           1488   -0.15000000   12.010736
  1489     ca         1      MOL     C           1489   -0.15000000   12.010736
  1490     n          1      MOL     N           1490   -0.54700000   14.006703
  1491     c          1      MOL     C           1491    0.54380000   12.010736
  1492     o          1      MOL     O           1492   -0.57000000   15.999405
  1493     ca         1      MOL     C           1493    0.08620000   12.010736
  1494     ca         1      MOL     C           1494   -0.15000000   12.010736
  1495     ca         1      MOL     C           1495   -0.15000000   12.010736
  1496     ca         1      MOL     C           1496    0.11700000   12.010736
  1497     ca         1      MOL     C           1497   -0.15000000   12.010736
  1498     ca         1      MOL     C           1498   -0.15000000   12.010736
  1499     n          1      MOL     N           1499   -0.23700000   14.006703
  1500     c          1      MOL     C           1500    0.54380000   12.010736
  1501     o          1      MOL     O           1501   -0.57000000   15.999405
  1502     ca         1      MOL     C           1502    0.08620000   12.010736
  1503     ca         1      MOL     C           1503    0.08620000   12.010736
  1504     c          1      MOL     C           1504    0.54380000   12.010736
  1505     o          1      MOL     O           1505   -0.57000000   15.999405
  1506     ca         1      MOL     C           1506   -0.15000000   12.010736
  1507     cp         1      MOL     C           1507    0.00000000   12.010736
  1508     ca         1      MOL     C           1508   -0.15000000   12.010736
  1509     ca         1      MOL     C           1509   -0.15000000   12.010736
  1510     c3         1      MOL     C           1510    0.14350000   12.010736
  1511     ha         1      MOL     H           1511    0.15000000    1.007941
  1512     ha         1      MOL     H           1512    0.15000000    1.007941
  1513     ha         1      MOL     H           1513    0.15000000    1.007941
  1514     ha         1      MOL     H           1514    0.15000000    1.007941
  1515     ha         1      MOL     H           1515    0.15000000    1.007941
  1516     ha         1      MOL     H           1516    0.15000000    1.007941
  1517     ha         1      MOL     H           1517    0.15000000    1.007941
  1518     hn         1      MOL     H           1518    0.37000000    1.007941
  1519     ha         1      MOL     H           1519    0.15000000    1.007941
  1520     ha         1      MOL     H           1520    0.15000000    1.007941
  1521     ha         1      MOL     H           1521    0.15000000    1.007941
  1522     ha         1      MOL     H           1522    0.15000000    1.007941
  1523     ha         1      MOL     H           1523    0.15000000    1.007941
  1524     ha         1      MOL     H           1524    0.15000000    1.007941
  1525     hn         1      MOL     H           1525    0.37000000    1.007941
  1526     ha         1      MOL     H           1526    0.15000000    1.007941
  1527     ha         1      MOL     H           1527    0.15000000    1.007941
  1528     ha         1      MOL     H           1528    0.15000000    1.007941
  1529     ha         1      MOL     H           1529    0.15000000    1.007941
  1530     ha         1      MOL     H           1530    0.15000000    1.007941
  1531     ha         1      MOL     H           1531    0.15000000    1.007941
  1532     ha         1      MOL     H           1532    0.15000000    1.007941
  1533     ha         1      MOL     H           1533    0.15000000    1.007941
  1534     ha         1      MOL     H           1534    0.15000000    1.007941
  1535     ha         1      MOL     H           1535    0.15000000    1.007941
  1536     ha         1      MOL     H           1536    0.15000000    1.007941
  1537     ha         1      MOL     H           1537    0.15000000    1.007941
  1538     hn         1      MOL     H           1538    0.37000000    1.007941
  1539     ha         1      MOL     H           1539    0.15000000    1.007941
  1540     ha         1      MOL     H           1540    0.15000000    1.007941
  1541     ha         1      MOL     H           1541    0.15000000    1.007941
  1542     ha         1      MOL     H           1542    0.15000000    1.007941
  1543     ha         1      MOL     H           1543    0.15000000    1.007941
  1544     ha         1      MOL     H           1544    0.15000000    1.007941
  1545     ha         1      MOL     H           1545    0.15000000    1.007941
  1546     hc         1      MOL     H           1546    0.00000000    1.007941
  1547     hc         1      MOL     H           1547    0.00000000    1.007941
  1548     hc         1      MOL     H           1548    0.00000000    1.007941
  1549     cp         1      MOL     C           1549    0.00000000   12.010736
  1550     ca         1      MOL     C           1550   -0.15000000   12.010736
  1551     ca         1      MOL     C           1551   -0.15000000   12.010736
  1552     ca         1      MOL     C           1552    0.08620000   12.010736
  1553     ca         1      MOL     C           1553    0.08620000   12.010736
  1554     ca         1      MOL     C           1554   -0.15000000   12.010736
  1555     c          1      MOL     C           1555    0.54380000   12.010736
  1556     o          1      MOL     O           1556   -0.57000000   15.999405
  1557     n          1      MOL     N           1557   -0.23700000   14.006703
  1558     c          1      MOL     C           1558    0.54380000   12.010736
  1559     o          1      MOL     O           1559   -0.57000000   15.999405
  1560     ca         1      MOL     C           1560    0.11700000   12.010736
  1561     ca         1      MOL     C           1561   -0.15000000   12.010736
  1562     ca         1      MOL     C           1562   -0.15000000   12.010736
  1563     ca         1      MOL     C           1563    0.11700000   12.010736
  1564     ca         1      MOL     C           1564   -0.15000000   12.010736
  1565     ca         1      MOL     C           1565   -0.15000000   12.010736
  1566     n          1      MOL     N           1566   -0.54700000   14.006703
  1567     c          1      MOL     C           1567    0.54380000   12.010736
  1568     o          1      MOL     O           1568   -0.57000000   15.999405
  1569     ca         1      MOL     C           1569    0.08620000   12.010736
  1570     ca         1      MOL     C           1570   -0.15000000   12.010736
  1571     ca         1      MOL     C           1571   -0.15000000   12.010736
  1572     ca         1      MOL     C           1572   -0.14350000   12.010736
  1573     ca         1      MOL     C           1573   -0.15000000   12.010736
  1574     ca         1      MOL     C           1574    0.11700000   12.010736
  1575     n          1      MOL     N           1575   -0.23700000   14.006703
  1576     c          1      MOL     C           1576    0.54380000   12.010736
  1577     o          1      MOL     O           1577   -0.57000000   15.999405
  1578     ca         1      MOL     C           1578    0.08620000   12.010736
  1579     ca         1      MOL     C           1579    0.08620000   12.010736
  1580     c          1      MOL     C           1580    0.54380000   12.010736
  1581     o          1      MOL     O           1581   -0.57000000   15.999405
  1582     ca         1      MOL     C           1582   -0.15000000   12.010736
  1583     ca         1      MOL     C           1583    0.08620000   12.010736
  1584     ca         1      MOL     C           1584   -0.15000000   12.010736
  1585     ca         1      MOL     C           1585   -0.15000000   12.010736
  1586     c          1      MOL     C           1586    0.54380000   12.010736
  1587     o          1      MOL     O           1587   -0.57000000   15.999405
  1588     n          1      MOL     N           1588   -0.54700000   14.006703
  1589     ca         1      MOL     C           1589    0.11700000   12.010736
  1590     ca         1      MOL     C           1590   -0.15000000   12.010736
  1591     ca         1      MOL     C           1591   -0.15000000   12.010736
  1592     ca         1      MOL     C           1592    0.08250000   12.010736
  1593     ca         1      MOL     C           1593   -0.15000000   12.010736
  1594     ca         1      MOL     C           1594   -0.15000000   12.010736
  1595     os         1      MOL     O           1595   -0.16500000   15.999405
  1596     ca         1      MOL     C           1596    0.08250000   12.010736
  1597     ca         1      MOL     C           1597   -0.15000000   12.010736
  1598     ca         1      MOL     C           1598   -0.15000000   12.010736
  1599     ca         1      MOL     C           1599   -0.15000000   12.010736
  1600     ca         1      MOL     C           1600   -0.15000000   12.010736
  1601     ca         1      MOL     C           1601    0.08250000   12.010736
  1602     os         1      MOL     O           1602   -0.16500000   15.999405
  1603     ca         1      MOL     C           1603    0.08250000   12.010736
  1604     ca         1      MOL     C           1604   -0.15000000   12.010736
  1605     ca         1      MOL     C           1605   -0.15000000   12.010736
  1606     ca         1      MOL     C           1606    0.11700000   12.010736
  1607     ca         1      MOL     C           1607   -0.15000000   12.010736
  1608     ca         1      MOL     C           1608   -0.15000000   12.010736
  1609     n          1      MOL     N           1609   -0.54700000   14.006703
  1610     c          1      MOL     C           1610    0.54380000   12.010736
  1611     o          1      MOL     O           1611   -0.57000000   15.999405
  1612     ca         1      MOL     C           1612    0.08620000   12.010736
  1613     ca         1      MOL     C           1613   -0.15000000   12.010736
  1614     ca         1      MOL     C           1614   -0.15000000   12.010736
  1615     ca         1      MOL     C           1615    0.11700000   12.010736
  1616     ca         1      MOL     C           1616   -0.15000000   12.010736
  1617     ca         1      MOL     C           1617   -0.15000000   12.010736
  1618     n          1      MOL     N           1618   -0.23700000   14.006703
  1619     c          1      MOL     C           1619    0.54380000   12.010736
  1620     o          1      MOL     O           1620   -0.57000000   15.999405
  1621     ca         1      MOL     C           1621    0.08620000   12.010736
  1622     ca         1      MOL     C           1622    0.08620000   12.010736
  1623     c          1      MOL     C           1623    0.54380000   12.010736
  1624     o          1      MOL     O           1624   -0.57000000   15.999405
  1625     ca         1      MOL     C           1625   -0.15000000   12.010736
  1626     cp         1      MOL     C           1626    0.00000000   12.010736
  1627     ca         1      MOL     C           1627   -0.15000000   12.010736
  1628     ca         1      MOL     C           1628   -0.15000000   12.010736
  1629     c3         1      MOL     C           1629    0.14350000   12.010736
  1630     ha         1      MOL     H           1630    0.15000000    1.007941
  1631     ha         1      MOL     H           1631    0.15000000    1.007941
  1632     ha         1      MOL     H           1632    0.15000000    1.007941
  1633     ha         1      MOL     H           1633    0.15000000    1.007941
  1634     ha         1      MOL     H           1634    0.15000000    1.007941
  1635     ha         1      MOL     H           1635    0.15000000    1.007941
  1636     ha         1      MOL     H           1636    0.15000000    1.007941
  1637     hn         1      MOL     H           1637    0.37000000    1.007941
  1638     ha         1      MOL     H           1638    0.15000000    1.007941
  1639     ha         1      MOL     H           1639    0.15000000    1.007941
  1640     ha         1      MOL     H           1640    0.15000000    1.007941
  1641     ha         1      MOL     H           1641    0.15000000    1.007941
  1642     ha         1      MOL     H           1642    0.15000000    1.007941
  1643     ha         1      MOL     H           1643    0.15000000    1.007941
  1644     hn         1      MOL     H           1644    0.37000000    1.007941
  1645     ha         1      MOL     H           1645    0.15000000    1.007941
  1646     ha         1      MOL     H           1646    0.15000000    1.007941
  1647     ha         1      MOL     H           1647    0.15000000    1.007941
  1648     ha         1      MOL     H           1648    0.15000000    1.007941
  1649     ha         1      MOL     H           1649    0.15000000    1.007941
  1650     ha         1      MOL     H           1650    0.15000000    1.007941
  1651     ha         1      MOL     H           1651    0.15000000    1.007941
  1652     ha         1      MOL     H           1652    0.15000000    1.007941
  1653     ha         1      MOL     H           1653    0.15000000    1.007941
  1654     ha         1      MOL     H           1654    0.15000000    1.007941
  1655     ha         1      MOL     H           1655    0.15000000    1.007941
  1656     ha         1      MOL     H           1656    0.15000000    1.007941
  1657     hn         1      MOL     H           1657    0.37000000    1.007941
  1658     ha         1      MOL     H           1658    0.15000000    1.007941
  1659     ha         1      MOL     H           1659    0.15000000    1.007941
  1660     ha         1      MOL     H           1660    0.15000000    1.007941
  1661     ha         1      MOL     H           1661    0.15000000    1.007941
  1662     ha         1      MOL     H           1662    0.15000000    1.007941
  1663     ha         1      MOL     H           1663    0.15000000    1.007941
  1664     ha         1      MOL     H           1664    0.15000000    1.007941
  1665     hc         1      MOL     H           1665    0.00000000    1.007941
  1666     hc         1      MOL     H           1666    0.00000000    1.007941
  1667     hc         1      MOL     H           1667    0.00000000    1.007941
  1668     cp         1      MOL     C           1668    0.00000000   12.010736
  1669     ca         1      MOL     C           1669   -0.15000000   12.010736
  1670     ca         1      MOL     C           1670   -0.15000000   12.010736
  1671     ca         1      MOL     C           1671    0.08620000   12.010736
  1672     ca         1      MOL     C           1672    0.08620000   12.010736
  1673     ca         1      MOL     C           1673   -0.15000000   12.010736
  1674     c          1      MOL     C           1674    0.54380000   12.010736
  1675     o          1      MOL     O           1675   -0.57000000   15.999405
  1676     n          1      MOL     N           1676   -0.23700000   14.006703
  1677     c          1      MOL     C           1677    0.54380000   12.010736
  1678     o          1      MOL     O           1678   -0.57000000   15.999405
  1679     ca         1      MOL     C           1679    0.11700000   12.010736
  1680     ca         1      MOL     C           1680   -0.15000000   12.010736
  1681     ca         1      MOL     C           1681   -0.15000000   12.010736
  1682     ca         1      MOL     C           1682    0.11700000   12.010736
  1683     ca         1      MOL     C           1683   -0.15000000   12.010736
  1684     ca         1      MOL     C           1684   -0.15000000   12.010736
  1685     n          1      MOL     N           1685   -0.54700000   14.006703
  1686     c          1      MOL     C           1686    0.54380000   12.010736
  1687     o          1      MOL     O           1687   -0.57000000   15.999405
  1688     ca         1      MOL     C           1688    0.08620000   12.010736
  1689     ca         1      MOL     C           1689   -0.15000000   12.010736
  1690     ca         1      MOL     C           1690   -0.15000000   12.010736
  1691     ca         1      MOL     C           1691   -0.14350000   12.010736
  1692     ca         1      MOL     C           1692   -0.15000000   12.010736
  1693     ca         1      MOL     C           1693    0.11700000   12.010736
  1694     n          1      MOL     N           1694   -0.23700000   14.006703
  1695     c          1      MOL     C           1695    0.54380000   12.010736
  1696     o          1      MOL     O           1696   -0.57000000   15.999405
  1697     ca         1      MOL     C           1697    0.08620000   12.010736
  1698     ca         1      MOL     C           1698    0.08620000   12.010736
  1699     c          1      MOL     C           1699    0.54380000   12.010736
  1700     o          1      MOL     O           1700   -0.57000000   15.999405
  1701     ca         1      MOL     C           1701   -0.15000000   12.010736
  1702     ca         1      MOL     C           1702    0.08620000   12.010736
  1703     ca         1      MOL     C           1703   -0.15000000   12.010736
  1704     ca         1      MOL     C           1704   -0.15000000   12.010736
  1705     c          1      MOL     C           1705    0.54380000   12.010736
  1706     o          1      MOL     O           1706   -0.57000000   15.999405
  1707     n          1      MOL     N           1707   -0.54700000   14.006703
  1708     ca         1      MOL     C           1708    0.11700000   12.010736
  1709     ca         1      MOL     C           1709   -0.15000000   12.010736
  1710     ca         1      MOL     C           1710   -0.15000000   12.010736
  1711     ca         1      MOL     C           1711    0.08250000   12.010736
  1712     ca         1      MOL     C           1712   -0.15000000   12.010736
  1713     ca         1      MOL     C           1713   -0.15000000   12.010736
  1714     os         1      MOL     O           1714   -0.16500000   15.999405
  1715     ca         1      MOL     C           1715    0.08250000   12.010736
  1716     ca         1      MOL     C           1716   -0.15000000   12.010736
  1717     ca         1      MOL     C           1717   -0.15000000   12.010736
  1718     ca         1      MOL     C           1718   -0.15000000   12.010736
  1719     ca         1      MOL     C           1719   -0.15000000   12.010736
  1720     ca         1      MOL     C           1720    0.08250000   12.010736
  1721     os         1      MOL     O           1721   -0.16500000   15.999405
  1722     ca         1      MOL     C           1722    0.08250000   12.010736
  1723     ca         1      MOL     C           1723   -0.15000000   12.010736
  1724     ca         1      MOL     C           1724   -0.15000000   12.010736
  1725     ca         1      MOL     C           1725    0.11700000   12.010736
  1726     ca         1      MOL     C           1726   -0.15000000   12.010736
  1727     ca         1      MOL     C           1727   -0.15000000   12.010736
  1728     n          1      MOL     N           1728   -0.54700000   14.006703
  1729     c          1      MOL     C           1729    0.54380000   12.010736
  1730     o          1      MOL     O           1730   -0.57000000   15.999405
  1731     ca         1      MOL     C           1731    0.08620000   12.010736
  1732     ca         1      MOL     C           1732   -0.15000000   12.010736
  1733     ca         1      MOL     C           1733   -0.15000000   12.010736
  1734     ca         1      MOL     C           1734    0.11700000   12.010736
  1735     ca         1      MOL     C           1735   -0.15000000   12.010736
  1736     ca         1      MOL     C           1736   -0.15000000   12.010736
  1737     n          1      MOL     N           1737   -0.23700000   14.006703
  1738     c          1      MOL     C           1738    0.54380000   12.010736
  1739     o          1      MOL     O           1739   -0.57000000   15.999405
  1740     ca         1      MOL     C           1740    0.08620000   12.010736
  1741     ca         1      MOL     C           1741    0.08620000   12.010736
  1742     c          1      MOL     C           1742    0.54380000   12.010736
  1743     o          1      MOL     O           1743   -0.57000000   15.999405
  1744     ca         1      MOL     C           1744   -0.15000000   12.010736
  1745     ca         1      MOL     C           1745   -0.15000000   12.010736
  1746     ca         1      MOL     C           1746   -0.15000000   12.010736
  1747     ca         1      MOL     C           1747   -0.15000000   12.010736
  1748     ha         1      MOL     H           1748    0.15000000    1.007941
  1749     c3         1      MOL     C           1749    0.14350000   12.010736
  1750     ha         1      MOL     H           1750    0.15000000    1.007941
  1751     ha         1      MOL     H           1751    0.15000000    1.007941
  1752     ha         1      MOL     H           1752    0.15000000    1.007941
  1753     ha         1      MOL     H           1753    0.15000000    1.007941
  1754     ha         1      MOL     H           1754    0.15000000    1.007941
  1755     ha         1      MOL     H           1755    0.15000000    1.007941
  1756     ha         1      MOL     H           1756    0.15000000    1.007941
  1757     hn         1      MOL     H           1757    0.37000000    1.007941
  1758     ha         1      MOL     H           1758    0.15000000    1.007941
  1759     ha         1      MOL     H           1759    0.15000000    1.007941
  1760     ha         1      MOL     H           1760    0.15000000    1.007941
  1761     ha         1      MOL     H           1761    0.15000000    1.007941
  1762     ha         1      MOL     H           1762    0.15000000    1.007941
  1763     ha         1      MOL     H           1763    0.15000000    1.007941
  1764     hn         1      MOL     H           1764    0.37000000    1.007941
  1765     ha         1      MOL     H           1765    0.15000000    1.007941
  1766     ha         1      MOL     H           1766    0.15000000    1.007941
  1767     ha         1      MOL     H           1767    0.15000000    1.007941
  1768     ha         1      MOL     H           1768    0.15000000    1.007941
  1769     ha         1      MOL     H           1769    0.15000000    1.007941
  1770     ha         1      MOL     H           1770    0.15000000    1.007941
  1771     ha         1      MOL     H           1771    0.15000000    1.007941
  1772     ha         1      MOL     H           1772    0.15000000    1.007941
  1773     ha         1      MOL     H           1773    0.15000000    1.007941
  1774     ha         1      MOL     H           1774    0.15000000    1.007941
  1775     ha         1      MOL     H           1775    0.15000000    1.007941
  1776     ha         1      MOL     H           1776    0.15000000    1.007941
  1777     hn         1      MOL     H           1777    0.37000000    1.007941
  1778     ha         1      MOL     H           1778    0.15000000    1.007941
  1779     ha         1      MOL     H           1779    0.15000000    1.007941
  1780     ha         1      MOL     H           1780    0.15000000    1.007941
  1781     ha         1      MOL     H           1781    0.15000000    1.007941
  1782     ha         1      MOL     H           1782    0.15000000    1.007941
  1783     ha         1      MOL     H           1783    0.15000000    1.007941
  1784     ha         1      MOL     H           1784    0.15000000    1.007941
  1785     hc         1      MOL     H           1785    0.00000000    1.007941
  1786     hc         1      MOL     H           1786    0.00000000    1.007941
  1787     hc         1      MOL     H           1787    0.00000000    1.007941
 
[ bonds ]
;  atom_i   atom_j  functype      r0 (nm)    k (kJ/mol/nm^2)
     1        2         1        0.108600     2.893654E+05     ; H-C, prebuilt ca-ha
     2        3         1        0.139840     3.858485E+05     ; C-C, prebuilt ca-ca
     2        7         1        0.139840     3.858485E+05     ; C-C, prebuilt ca-ca
     3        4         1        0.139840     3.858485E+05     ; C-C, prebuilt ca-ca
     3       83         1        0.108600     2.893654E+05     ; C-H, prebuilt ca-ha
     4        5         1        0.139840     3.858485E+05     ; C-C, prebuilt ca-ca
     4       84         1        0.108600     2.893654E+05     ; C-H, prebuilt ca-ha
     5        6         1        0.139840     3.858485E+05     ; C-C, prebuilt ca-ca
     5       11         1        0.149060     2.894491E+05     ; C-C, prebuilt c-ca
     6        7         1        0.139840     3.858485E+05     ; C-C, prebuilt ca-ca
     6        8         1        0.149060     2.894491E+05     ; C-C, prebuilt c-ca
     7       85         1        0.108600     2.893654E+05     ; C-H, prebuilt ca-ha
     8        9         1        0.121830     5.336274E+05     ; C-O, prebuilt c-o
     8       10         1        0.137890     3.578157E+05     ; C-N, prebuilt c-n
    10       11         1        0.137890     3.578157E+05     ; N-C, prebuilt c-n
    10       13         1        0.141210     3.214986E+05     ; N-C, prebuilt ca-n
    11       12         1        0.121830     5.336274E+05     ; C-O, prebuilt c-o
    13       14         1        0.139840     3.858485E+05     ; C-C, prebuilt ca-ca
    13       18         1        0.139840     3.858485E+05     ; C-C, prebuilt ca-ca
    14       15         1        0.139840     3.858485E+05     ; C-C, prebuilt ca-ca
    14       86         1        0.108600     2.893654E+05     ; C-H, prebuilt ca-ha
    15       16         1        0.139840     3.858485E+05     ; C-C, prebuilt ca-ca
    15       87         1        0.108600     2.893654E+05     ; C-H, prebuilt ca-ha
    16       17         1        0.139840     3.858485E+05     ; C-C, prebuilt ca-ca
    16       19         1        0.141210     3.214986E+05     ; C-N, prebuilt ca-n
    17       18         1        0.139840     3.858485E+05     ; C-C, prebuilt ca-ca
    17       88         1        0.108600     2.893654E+05     ; C-H, prebuilt ca-ha
    18       89         1        0.108600     2.893654E+05     ; C-H, prebuilt ca-ha
    19       20         1        0.137890     3.578157E+05     ; N-C, prebuilt c-n
    19       90         1        0.101290     3.373978E+05     ; N-H, prebuilt hn-n
    20       21         1        0.121830     5.336274E+05     ; C-O, prebuilt c-o
    20       22         1        0.149060     2.894491E+05     ; C-C, prebuilt c-ca
    22       23         1        0.139840     3.858485E+05     ; C-C, prebuilt ca-ca
    22       27         1        0.139840     3.858485E+05     ; C-C, prebuilt ca-ca
    23       24         1        0.139840     3.858485E+05     ; C-C, prebuilt ca-ca
    23       91         1        0.108600     2.893654E+05     ; C-H, prebuilt ca-ha
    24       25         1        0.139840     3.858485E+05     ; C-C, prebuilt ca-ca
    24       92         1        0.108600     2.893654E+05     ; C-H, prebuilt ca-ha
    25       26         1        0.139840     3.858485E+05     ; C-C, prebuilt ca-ca
    25       82         1        0.151560     2.686128E+05     ; C-C, prebuilt c3-ca
    26       27         1        0.139840     3.858485E+05     ; C-C, prebuilt ca-ca
    26       93         1        0.108600     2.893654E+05     ; C-H, prebuilt ca-ha
    27       28         1        0.141210     3.214986E+05     ; C-N, prebuilt ca-n
    28       29         1        0.137890     3.578157E+05     ; N-C, prebuilt c-n
    28       33         1        0.137890     3.578157E+05     ; N-C, prebuilt c-n
    29       30         1        0.121830     5.336274E+05     ; C-O, prebuilt c-o
    29       31         1        0.149060     2.894491E+05     ; C-C, prebuilt c-ca
    31       32         1        0.139840     3.858485E+05     ; C-C, prebuilt ca-ca
    31       38         1        0.139840     3.858485E+05     ; C-C, prebuilt ca-ca
    32       33         1        0.149060     2.894491E+05     ; C-C, prebuilt c-ca
    32       35         1        0.139840     3.858485E+05     ; C-C, prebuilt ca-ca
    33       34         1        0.121830     5.336274E+05     ; C-O, prebuilt c-o
    35       36         1        0.139840     3.858485E+05     ; C-C, prebuilt ca-ca
    35       94         1        0.108600     2.893654E+05     ; C-H, prebuilt ca-ha
    36       37         1        0.139840     3.858485E+05     ; C-C, prebuilt ca-ca
    36       39         1        0.149060     2.894491E+05     ; C-C, prebuilt c-ca
    37       38         1        0.139840     3.858485E+05     ; C-C, prebuilt ca-ca
    37       95         1        0.108600     2.893654E+05     ; C-H, prebuilt ca-ha
    38       96         1        0.108600     2.893654E+05     ; C-H, prebuilt ca-ha
    39       40         1        0.121830     5.336274E+05     ; C-O, prebuilt c-o
    39       41         1        0.137890     3.578157E+05     ; C-N, prebuilt c-n
    41       42         1        0.141210     3.214986E+05     ; N-C, prebuilt ca-n
    41       97         1        0.101290     3.373978E+05     ; N-H, prebuilt hn-n
    42       43         1        0.139840     3.858485E+05     ; C-C, prebuilt ca-ca
    42       47         1        0.139840     3.858485E+05     ; C-C, prebuilt ca-ca
    43       44         1        0.139840     3.858485E+05     ; C-C, prebuilt ca-ca
    43       98         1        0.108600     2.893654E+05     ; C-H, prebuilt ca-ha
    44       45         1        0.139840     3.858485E+05     ; C-C, prebuilt ca-ca
    44       99         1        0.108600     2.893654E+05     ; C-H, prebuilt ca-ha
    45       46         1        0.139840     3.858485E+05     ; C-C, prebuilt ca-ca
    45       48         1        0.136960     3.151389E+05     ; C-O, prebuilt ca-os
    46       47         1        0.139840     3.858485E+05     ; C-C, prebuilt ca-ca
    46      100         1        0.108600     2.893654E+05     ; C-H, prebuilt ca-ha
    47      101         1        0.108600     2.893654E+05     ; C-H, prebuilt ca-ha
    48       49         1        0.136960     3.151389E+05     ; O-C, prebuilt ca-os
    49       50         1        0.139840     3.858485E+05     ; C-C, prebuilt ca-ca
    49       54         1        0.139840     3.858485E+05     ; C-C, prebuilt ca-ca
    50       51         1        0.139840     3.858485E+05     ; C-C, prebuilt ca-ca
    50      102         1        0.108600     2.893654E+05     ; C-H, prebuilt ca-ha
    51       52         1        0.139840     3.858485E+05     ; C-C, prebuilt ca-ca
    51      103         1        0.108600     2.893654E+05     ; C-H, prebuilt ca-ha
    52       53         1        0.139840     3.858485E+05     ; C-C, prebuilt ca-ca
    52      104         1        0.108600     2.893654E+05     ; C-H, prebuilt ca-ha
    53       54         1        0.139840     3.858485E+05     ; C-C, prebuilt ca-ca
    53      105         1        0.108600     2.893654E+05     ; C-H, prebuilt ca-ha
    54       55         1        0.136960     3.151389E+05     ; C-O, prebuilt ca-os
    55       56         1        0.136960     3.151389E+05     ; O-C, prebuilt ca-os
    56       57         1        0.139840     3.858485E+05     ; C-C, prebuilt ca-ca
    56       61         1        0.139840     3.858485E+05     ; C-C, prebuilt ca-ca
    57       58         1        0.139840     3.858485E+05     ; C-C, prebuilt ca-ca
    57      106         1        0.108600     2.893654E+05     ; C-H, prebuilt ca-ha
    58       59         1        0.139840     3.858485E+05     ; C-C, prebuilt ca-ca
    58      107         1        0.108600     2.893654E+05     ; C-H, prebuilt ca-ha
    59       60         1        0.139840     3.858485E+05     ; C-C, prebuilt ca-ca
    59       62         1        0.141210     3.214986E+05     ; C-N, prebuilt ca-n
    60       61         1        0.139840     3.858485E+05     ; C-C, prebuilt ca-ca
    60      108         1        0.108600     2.893654E+05     ; C-H, prebuilt ca-ha
    61      109         1        0.108600     2.893654E+05     ; C-H, prebuilt ca-ha
    62       63         1        0.137890     3.578157E+05     ; N-C, prebuilt c-n
    62      110         1        0.101290     3.373978E+05     ; N-H, prebuilt hn-n
    63       64         1        0.121830     5.336274E+05     ; C-O, prebuilt c-o
    63       65         1        0.149060     2.894491E+05     ; C-C, prebuilt c-ca
    65       66         1        0.139840     3.858485E+05     ; C-C, prebuilt ca-ca
    65       70         1        0.139840     3.858485E+05     ; C-C, prebuilt ca-ca
    66       67         1        0.139840     3.858485E+05     ; C-C, prebuilt ca-ca
    66      111         1        0.108600     2.893654E+05     ; C-H, prebuilt ca-ha
    67       68         1        0.139840     3.858485E+05     ; C-C, prebuilt ca-ca
    67      112         1        0.108600     2.893654E+05     ; C-H, prebuilt ca-ha
    68       69         1        0.139840     3.858485E+05     ; C-C, prebuilt ca-ca
    68       71         1        0.141210     3.214986E+05     ; C-N, prebuilt ca-n
    69       70         1        0.139840     3.858485E+05     ; C-C, prebuilt ca-ca
    69      113         1        0.108600     2.893654E+05     ; C-H, prebuilt ca-ha
    70      114         1        0.108600     2.893654E+05     ; C-H, prebuilt ca-ha
    71       72         1        0.137890     3.578157E+05     ; N-C, prebuilt c-n
    71       76         1        0.137890     3.578157E+05     ; N-C, prebuilt c-n
    72       73         1        0.121830     5.336274E+05     ; C-O, prebuilt c-o
    72       74         1        0.149060     2.894491E+05     ; C-C, prebuilt c-ca
    74       75         1        0.139840     3.858485E+05     ; C-C, prebuilt ca-ca
    74       81         1        0.139840     3.858485E+05     ; C-C, prebuilt ca-ca
    75       76         1        0.149060     2.894491E+05     ; C-C, prebuilt c-ca
    75       78         1        0.139840     3.858485E+05     ; C-C, prebuilt ca-ca
    76       77         1        0.121830     5.336274E+05     ; C-O, prebuilt c-o
    78       79         1        0.140580     3.767274E+05     ; C-C, prebuilt ca-cp
    78      115         1        0.108600     2.893654E+05     ; C-H, prebuilt ca-ha
    79       80         1        0.140580     3.767274E+05     ; C-C, prebuilt ca-cp
    79      121         1        0.148540     2.940515E+05     ; C-C, prebuilt cp-cp
    80       81         1        0.139840     3.858485E+05     ; C-C, prebuilt ca-ca
    80      116         1        0.108600     2.893654E+05     ; C-H, prebuilt ca-ha
    81      117         1        0.108600     2.893654E+05     ; C-H, prebuilt ca-ha
    82      118         1        0.109690     2.766461E+05     ; C-H, prebuilt c3-hc
    82      119         1        0.109690     2.766461E+05     ; C-H, prebuilt c3-hc
    82      120         1        0.109690     2.766461E+05     ; C-H, prebuilt c3-hc
   121      122         1        0.140580     3.767274E+05     ; C-C, prebuilt ca-cp
   121      126         1        0.140580     3.767274E+05     ; C-C, prebuilt ca-cp
   122      123         1        0.139840     3.858485E+05     ; C-C, prebuilt ca-ca
   122      202         1        0.108600     2.893654E+05     ; C-H, prebuilt ca-ha
   123      124         1        0.139840     3.858485E+05     ; C-C, prebuilt ca-ca
   123      203         1        0.108600     2.893654E+05     ; C-H, prebuilt ca-ha
   124      125         1        0.139840     3.858485E+05     ; C-C, prebuilt ca-ca
   124      130         1        0.149060     2.894491E+05     ; C-C, prebuilt c-ca
   125      126         1        0.139840     3.858485E+05     ; C-C, prebuilt ca-ca
   125      127         1        0.149060     2.894491E+05     ; C-C, prebuilt c-ca
   126      204         1        0.108600     2.893654E+05     ; C-H, prebuilt ca-ha
   127      128         1        0.121830     5.336274E+05     ; C-O, prebuilt c-o
   127      129         1        0.137890     3.578157E+05     ; C-N, prebuilt c-n
   129      130         1        0.137890     3.578157E+05     ; N-C, prebuilt c-n
   129      132         1        0.141210     3.214986E+05     ; N-C, prebuilt ca-n
   130      131         1        0.121830     5.336274E+05     ; C-O, prebuilt c-o
   132      133         1        0.139840     3.858485E+05     ; C-C, prebuilt ca-ca
   132      137         1        0.139840     3.858485E+05     ; C-C, prebuilt ca-ca
   133      134         1        0.139840     3.858485E+05     ; C-C, prebuilt ca-ca
   133      205         1        0.108600     2.893654E+05     ; C-H, prebuilt ca-ha
   134      135         1        0.139840     3.858485E+05     ; C-C, prebuilt ca-ca
   134      206         1        0.108600     2.893654E+05     ; C-H, prebuilt ca-ha
   135      136         1        0.139840     3.858485E+05     ; C-C, prebuilt ca-ca
   135      138         1        0.141210     3.214986E+05     ; C-N, prebuilt ca-n
   136      137         1        0.139840     3.858485E+05     ; C-C, prebuilt ca-ca
   136      207         1        0.108600     2.893654E+05     ; C-H, prebuilt ca-ha
   137      208         1        0.108600     2.893654E+05     ; C-H, prebuilt ca-ha
   138      139         1        0.137890     3.578157E+05     ; N-C, prebuilt c-n
   138      209         1        0.101290     3.373978E+05     ; N-H, prebuilt hn-n
   139      140         1        0.121830     5.336274E+05     ; C-O, prebuilt c-o
   139      141         1        0.149060     2.894491E+05     ; C-C, prebuilt c-ca
   141      142         1        0.139840     3.858485E+05     ; C-C, prebuilt ca-ca
   141      146         1        0.139840     3.858485E+05     ; C-C, prebuilt ca-ca
   142      143         1        0.139840     3.858485E+05     ; C-C, prebuilt ca-ca
   142      210         1        0.108600     2.893654E+05     ; C-H, prebuilt ca-ha
   143      144         1        0.139840     3.858485E+05     ; C-C, prebuilt ca-ca
   143      211         1        0.108600     2.893654E+05     ; C-H, prebuilt ca-ha
   144      145         1        0.139840     3.858485E+05     ; C-C, prebuilt ca-ca
   144      201         1        0.151560     2.686128E+05     ; C-C, prebuilt c3-ca
   145      146         1        0.139840     3.858485E+05     ; C-C, prebuilt ca-ca
   145      212         1        0.108600     2.893654E+05     ; C-H, prebuilt ca-ha
   146      147         1        0.141210     3.214986E+05     ; C-N, prebuilt ca-n
   147      148         1        0.137890     3.578157E+05     ; N-C, prebuilt c-n
   147      152         1        0.137890     3.578157E+05     ; N-C, prebuilt c-n
   148      149         1        0.121830     5.336274E+05     ; C-O, prebuilt c-o
   148      150         1        0.149060     2.894491E+05     ; C-C, prebuilt c-ca
   150      151         1        0.139840     3.858485E+05     ; C-C, prebuilt ca-ca
   150      157         1        0.139840     3.858485E+05     ; C-C, prebuilt ca-ca
   151      152         1        0.149060     2.894491E+05     ; C-C, prebuilt c-ca
   151      154         1        0.139840     3.858485E+05     ; C-C, prebuilt ca-ca
   152      153         1        0.121830     5.336274E+05     ; C-O, prebuilt c-o
   154      155         1        0.139840     3.858485E+05     ; C-C, prebuilt ca-ca
   154      213         1        0.108600     2.893654E+05     ; C-H, prebuilt ca-ha
   155      156         1        0.139840     3.858485E+05     ; C-C, prebuilt ca-ca
   155      158         1        0.149060     2.894491E+05     ; C-C, prebuilt c-ca
   156      157         1        0.139840     3.858485E+05     ; C-C, prebuilt ca-ca
   156      214         1        0.108600     2.893654E+05     ; C-H, prebuilt ca-ha
   157      215         1        0.108600     2.893654E+05     ; C-H, prebuilt ca-ha
   158      159         1        0.121830     5.336274E+05     ; C-O, prebuilt c-o
   158      160         1        0.137890     3.578157E+05     ; C-N, prebuilt c-n
   160      161         1        0.141210     3.214986E+05     ; N-C, prebuilt ca-n
   160      216         1        0.101290     3.373978E+05     ; N-H, prebuilt hn-n
   161      162         1        0.139840     3.858485E+05     ; C-C, prebuilt ca-ca
   161      166         1        0.139840     3.858485E+05     ; C-C, prebuilt ca-ca
   162      163         1        0.139840     3.858485E+05     ; C-C, prebuilt ca-ca
   162      217         1        0.108600     2.893654E+05     ; C-H, prebuilt ca-ha
   163      164         1        0.139840     3.858485E+05     ; C-C, prebuilt ca-ca
   163      218         1        0.108600     2.893654E+05     ; C-H, prebuilt ca-ha
   164      165         1        0.139840     3.858485E+05     ; C-C, prebuilt ca-ca
   164      167         1        0.136960     3.151389E+05     ; C-O, prebuilt ca-os
   165      166         1        0.139840     3.858485E+05     ; C-C, prebuilt ca-ca
   165      219         1        0.108600     2.893654E+05     ; C-H, prebuilt ca-ha
   166      220         1        0.108600     2.893654E+05     ; C-H, prebuilt ca-ha
   167      168         1        0.136960     3.151389E+05     ; O-C, prebuilt ca-os
   168      169         1        0.139840     3.858485E+05     ; C-C, prebuilt ca-ca
   168      173         1        0.139840     3.858485E+05     ; C-C, prebuilt ca-ca
   169      170         1        0.139840     3.858485E+05     ; C-C, prebuilt ca-ca
   169      221         1        0.108600     2.893654E+05     ; C-H, prebuilt ca-ha
   170      171         1        0.139840     3.858485E+05     ; C-C, prebuilt ca-ca
   170      222         1        0.108600     2.893654E+05     ; C-H, prebuilt ca-ha
   171      172         1        0.139840     3.858485E+05     ; C-C, prebuilt ca-ca
   171      223         1        0.108600     2.893654E+05     ; C-H, prebuilt ca-ha
   172      173         1        0.139840     3.858485E+05     ; C-C, prebuilt ca-ca
   172      224         1        0.108600     2.893654E+05     ; C-H, prebuilt ca-ha
   173      174         1        0.136960     3.151389E+05     ; C-O, prebuilt ca-os
   174      175         1        0.136960     3.151389E+05     ; O-C, prebuilt ca-os
   175      176         1        0.139840     3.858485E+05     ; C-C, prebuilt ca-ca
   175      180         1        0.139840     3.858485E+05     ; C-C, prebuilt ca-ca
   176      177         1        0.139840     3.858485E+05     ; C-C, prebuilt ca-ca
   176      225         1        0.108600     2.893654E+05     ; C-H, prebuilt ca-ha
   177      178         1        0.139840     3.858485E+05     ; C-C, prebuilt ca-ca
   177      226         1        0.108600     2.893654E+05     ; C-H, prebuilt ca-ha
   178      179         1        0.139840     3.858485E+05     ; C-C, prebuilt ca-ca
   178      181         1        0.141210     3.214986E+05     ; C-N, prebuilt ca-n
   179      180         1        0.139840     3.858485E+05     ; C-C, prebuilt ca-ca
   179      227         1        0.108600     2.893654E+05     ; C-H, prebuilt ca-ha
   180      228         1        0.108600     2.893654E+05     ; C-H, prebuilt ca-ha
   181      182         1        0.137890     3.578157E+05     ; N-C, prebuilt c-n
   181      229         1        0.101290     3.373978E+05     ; N-H, prebuilt hn-n
   182      183         1        0.121830     5.336274E+05     ; C-O, prebuilt c-o
   182      184         1        0.149060     2.894491E+05     ; C-C, prebuilt c-ca
   184      185         1        0.139840     3.858485E+05     ; C-C, prebuilt ca-ca
   184      189         1        0.139840     3.858485E+05     ; C-C, prebuilt ca-ca
   185      186         1        0.139840     3.858485E+05     ; C-C, prebuilt ca-ca
   185      230         1        0.108600     2.893654E+05     ; C-H, prebuilt ca-ha
   186      187         1        0.139840     3.858485E+05     ; C-C, prebuilt ca-ca
   186      231         1        0.108600     2.893654E+05     ; C-H, prebuilt ca-ha
   187      188         1        0.139840     3.858485E+05     ; C-C, prebuilt ca-ca
   187      190         1        0.141210     3.214986E+05     ; C-N, prebuilt ca-n
   188      189         1        0.139840     3.858485E+05     ; C-C, prebuilt ca-ca
   188      232         1        0.108600     2.893654E+05     ; C-H, prebuilt ca-ha
   189      233         1        0.108600     2.893654E+05     ; C-H, prebuilt ca-ha
   190      191         1        0.137890     3.578157E+05     ; N-C, prebuilt c-n
   190      195         1        0.137890     3.578157E+05     ; N-C, prebuilt c-n
   191      192         1        0.121830     5.336274E+05     ; C-O, prebuilt c-o
   191      193         1        0.149060     2.894491E+05     ; C-C, prebuilt c-ca
   193      194         1        0.139840     3.858485E+05     ; C-C, prebuilt ca-ca
   193      200         1        0.139840     3.858485E+05     ; C-C, prebuilt ca-ca
   194      195         1        0.149060     2.894491E+05     ; C-C, prebuilt c-ca
   194      197         1        0.139840     3.858485E+05     ; C-C, prebuilt ca-ca
   195      196         1        0.121830     5.336274E+05     ; C-O, prebuilt c-o
   197      198         1        0.140580     3.767274E+05     ; C-C, prebuilt ca-cp
   197      234         1        0.108600     2.893654E+05     ; C-H, prebuilt ca-ha
   198      199         1        0.140580     3.767274E+05     ; C-C, prebuilt ca-cp
   198      240         1        0.148540     2.940515E+05     ; C-C, prebuilt cp-cp
   199      200         1        0.139840     3.858485E+05     ; C-C, prebuilt ca-ca
   199      235         1        0.108600     2.893654E+05     ; C-H, prebuilt ca-ha
   200      236         1        0.108600     2.893654E+05     ; C-H, prebuilt ca-ha
   201      237         1        0.109690     2.766461E+05     ; C-H, prebuilt c3-hc
   201      238         1        0.109690     2.766461E+05     ; C-H, prebuilt c3-hc
   201      239         1        0.109690     2.766461E+05     ; C-H, prebuilt c3-hc
   240      241         1        0.140580     3.767274E+05     ; C-C, prebuilt ca-cp
   240      245         1        0.140580     3.767274E+05     ; C-C, prebuilt ca-cp
   241      242         1        0.139840     3.858485E+05     ; C-C, prebuilt ca-ca
   241      321         1        0.108600     2.893654E+05     ; C-H, prebuilt ca-ha
   242      243         1        0.139840     3.858485E+05     ; C-C, prebuilt ca-ca
   242      322         1        0.108600     2.893654E+05     ; C-H, prebuilt ca-ha
   243      244         1        0.139840     3.858485E+05     ; C-C, prebuilt ca-ca
   243      249         1        0.149060     2.894491E+05     ; C-C, prebuilt c-ca
   244      245         1        0.139840     3.858485E+05     ; C-C, prebuilt ca-ca
   244      246         1        0.149060     2.894491E+05     ; C-C, prebuilt c-ca
   245      323         1        0.108600     2.893654E+05     ; C-H, prebuilt ca-ha
   246      247         1        0.121830     5.336274E+05     ; C-O, prebuilt c-o
   246      248         1        0.137890     3.578157E+05     ; C-N, prebuilt c-n
   248      249         1        0.137890     3.578157E+05     ; N-C, prebuilt c-n
   248      251         1        0.141210     3.214986E+05     ; N-C, prebuilt ca-n
   249      250         1        0.121830     5.336274E+05     ; C-O, prebuilt c-o
   251      252         1        0.139840     3.858485E+05     ; C-C, prebuilt ca-ca
   251      256         1        0.139840     3.858485E+05     ; C-C, prebuilt ca-ca
   252      253         1        0.139840     3.858485E+05     ; C-C, prebuilt ca-ca
   252      324         1        0.108600     2.893654E+05     ; C-H, prebuilt ca-ha
   253      254         1        0.139840     3.858485E+05     ; C-C, prebuilt ca-ca
   253      325         1        0.108600     2.893654E+05     ; C-H, prebuilt ca-ha
   254      255         1        0.139840     3.858485E+05     ; C-C, prebuilt ca-ca
   254      257         1        0.141210     3.214986E+05     ; C-N, prebuilt ca-n
   255      256         1        0.139840     3.858485E+05     ; C-C, prebuilt ca-ca
   255      326         1        0.108600     2.893654E+05     ; C-H, prebuilt ca-ha
   256      327         1        0.108600     2.893654E+05     ; C-H, prebuilt ca-ha
   257      258         1        0.137890     3.578157E+05     ; N-C, prebuilt c-n
   257      328         1        0.101290     3.373978E+05     ; N-H, prebuilt hn-n
   258      259         1        0.121830     5.336274E+05     ; C-O, prebuilt c-o
   258      260         1        0.149060     2.894491E+05     ; C-C, prebuilt c-ca
   260      261         1        0.139840     3.858485E+05     ; C-C, prebuilt ca-ca
   260      265         1        0.139840     3.858485E+05     ; C-C, prebuilt ca-ca
   261      262         1        0.139840     3.858485E+05     ; C-C, prebuilt ca-ca
   261      329         1        0.108600     2.893654E+05     ; C-H, prebuilt ca-ha
   262      263         1        0.139840     3.858485E+05     ; C-C, prebuilt ca-ca
   262      330         1        0.108600     2.893654E+05     ; C-H, prebuilt ca-ha
   263      264         1        0.139840     3.858485E+05     ; C-C, prebuilt ca-ca
   263      320         1        0.151560     2.686128E+05     ; C-C, prebuilt c3-ca
   264      265         1        0.139840     3.858485E+05     ; C-C, prebuilt ca-ca
   264      331         1        0.108600     2.893654E+05     ; C-H, prebuilt ca-ha
   265      266         1        0.141210     3.214986E+05     ; C-N, prebuilt ca-n
   266      267         1        0.137890     3.578157E+05     ; N-C, prebuilt c-n
   266      271         1        0.137890     3.578157E+05     ; N-C, prebuilt c-n
   267      268         1        0.121830     5.336274E+05     ; C-O, prebuilt c-o
   267      269         1        0.149060     2.894491E+05     ; C-C, prebuilt c-ca
   269      270         1        0.139840     3.858485E+05     ; C-C, prebuilt ca-ca
   269      276         1        0.139840     3.858485E+05     ; C-C, prebuilt ca-ca
   270      271         1        0.149060     2.894491E+05     ; C-C, prebuilt c-ca
   270      273         1        0.139840     3.858485E+05     ; C-C, prebuilt ca-ca
   271      272         1        0.121830     5.336274E+05     ; C-O, prebuilt c-o
   273      274         1        0.139840     3.858485E+05     ; C-C, prebuilt ca-ca
   273      332         1        0.108600     2.893654E+05     ; C-H, prebuilt ca-ha
   274      275         1        0.139840     3.858485E+05     ; C-C, prebuilt ca-ca
   274      277         1        0.149060     2.894491E+05     ; C-C, prebuilt c-ca
   275      276         1        0.139840     3.858485E+05     ; C-C, prebuilt ca-ca
   275      333         1        0.108600     2.893654E+05     ; C-H, prebuilt ca-ha
   276      334         1        0.108600     2.893654E+05     ; C-H, prebuilt ca-ha
   277      278         1        0.121830     5.336274E+05     ; C-O, prebuilt c-o
   277      279         1        0.137890     3.578157E+05     ; C-N, prebuilt c-n
   279      280         1        0.141210     3.214986E+05     ; N-C, prebuilt ca-n
   279      335         1        0.101290     3.373978E+05     ; N-H, prebuilt hn-n
   280      281         1        0.139840     3.858485E+05     ; C-C, prebuilt ca-ca
   280      285         1        0.139840     3.858485E+05     ; C-C, prebuilt ca-ca
   281      282         1        0.139840     3.858485E+05     ; C-C, prebuilt ca-ca
   281      336         1        0.108600     2.893654E+05     ; C-H, prebuilt ca-ha
   282      283         1        0.139840     3.858485E+05     ; C-C, prebuilt ca-ca
   282      337         1        0.108600     2.893654E+05     ; C-H, prebuilt ca-ha
   283      284         1        0.139840     3.858485E+05     ; C-C, prebuilt ca-ca
   283      286         1        0.136960     3.151389E+05     ; C-O, prebuilt ca-os
   284      285         1        0.139840     3.858485E+05     ; C-C, prebuilt ca-ca
   284      338         1        0.108600     2.893654E+05     ; C-H, prebuilt ca-ha
   285      339         1        0.108600     2.893654E+05     ; C-H, prebuilt ca-ha
   286      287         1        0.136960     3.151389E+05     ; O-C, prebuilt ca-os
   287      288         1        0.139840     3.858485E+05     ; C-C, prebuilt ca-ca
   287      292         1        0.139840     3.858485E+05     ; C-C, prebuilt ca-ca
   288      289         1        0.139840     3.858485E+05     ; C-C, prebuilt ca-ca
   288      340         1        0.108600     2.893654E+05     ; C-H, prebuilt ca-ha
   289      290         1        0.139840     3.858485E+05     ; C-C, prebuilt ca-ca
   289      341         1        0.108600     2.893654E+05     ; C-H, prebuilt ca-ha
   290      291         1        0.139840     3.858485E+05     ; C-C, prebuilt ca-ca
   290      342         1        0.108600     2.893654E+05     ; C-H, prebuilt ca-ha
   291      292         1        0.139840     3.858485E+05     ; C-C, prebuilt ca-ca
   291      343         1        0.108600     2.893654E+05     ; C-H, prebuilt ca-ha
   292      293         1        0.136960     3.151389E+05     ; C-O, prebuilt ca-os
   293      294         1        0.136960     3.151389E+05     ; O-C, prebuilt ca-os
   294      295         1        0.139840     3.858485E+05     ; C-C, prebuilt ca-ca
   294      299         1        0.139840     3.858485E+05     ; C-C, prebuilt ca-ca
   295      296         1        0.139840     3.858485E+05     ; C-C, prebuilt ca-ca
   295      344         1        0.108600     2.893654E+05     ; C-H, prebuilt ca-ha
   296      297         1        0.139840     3.858485E+05     ; C-C, prebuilt ca-ca
   296      345         1        0.108600     2.893654E+05     ; C-H, prebuilt ca-ha
   297      298         1        0.139840     3.858485E+05     ; C-C, prebuilt ca-ca
   297      300         1        0.141210     3.214986E+05     ; C-N, prebuilt ca-n
   298      299         1        0.139840     3.858485E+05     ; C-C, prebuilt ca-ca
   298      346         1        0.108600     2.893654E+05     ; C-H, prebuilt ca-ha
   299      347         1        0.108600     2.893654E+05     ; C-H, prebuilt ca-ha
   300      301         1        0.137890     3.578157E+05     ; N-C, prebuilt c-n
   300      348         1        0.101290     3.373978E+05     ; N-H, prebuilt hn-n
   301      302         1        0.121830     5.336274E+05     ; C-O, prebuilt c-o
   301      303         1        0.149060     2.894491E+05     ; C-C, prebuilt c-ca
   303      304         1        0.139840     3.858485E+05     ; C-C, prebuilt ca-ca
   303      308         1        0.139840     3.858485E+05     ; C-C, prebuilt ca-ca
   304      305         1        0.139840     3.858485E+05     ; C-C, prebuilt ca-ca
   304      349         1        0.108600     2.893654E+05     ; C-H, prebuilt ca-ha
   305      306         1        0.139840     3.858485E+05     ; C-C, prebuilt ca-ca
   305      350         1        0.108600     2.893654E+05     ; C-H, prebuilt ca-ha
   306      307         1        0.139840     3.858485E+05     ; C-C, prebuilt ca-ca
   306      309         1        0.141210     3.214986E+05     ; C-N, prebuilt ca-n
   307      308         1        0.139840     3.858485E+05     ; C-C, prebuilt ca-ca
   307      351         1        0.108600     2.893654E+05     ; C-H, prebuilt ca-ha
   308      352         1        0.108600     2.893654E+05     ; C-H, prebuilt ca-ha
   309      310         1        0.137890     3.578157E+05     ; N-C, prebuilt c-n
   309      314         1        0.137890     3.578157E+05     ; N-C, prebuilt c-n
   310      311         1        0.121830     5.336274E+05     ; C-O, prebuilt c-o
   310      312         1        0.149060     2.894491E+05     ; C-C, prebuilt c-ca
   312      313         1        0.139840     3.858485E+05     ; C-C, prebuilt ca-ca
   312      319         1        0.139840     3.858485E+05     ; C-C, prebuilt ca-ca
   313      314         1        0.149060     2.894491E+05     ; C-C, prebuilt c-ca
   313      316         1        0.139840     3.858485E+05     ; C-C, prebuilt ca-ca
   314      315         1        0.121830     5.336274E+05     ; C-O, prebuilt c-o
   316      317         1        0.140580     3.767274E+05     ; C-C, prebuilt ca-cp
   316      353         1        0.108600     2.893654E+05     ; C-H, prebuilt ca-ha
   317      318         1        0.140580     3.767274E+05     ; C-C, prebuilt ca-cp
   317      359         1        0.148540     2.940515E+05     ; C-C, prebuilt cp-cp
   318      319         1        0.139840     3.858485E+05     ; C-C, prebuilt ca-ca
   318      354         1        0.108600     2.893654E+05     ; C-H, prebuilt ca-ha
   319      355         1        0.108600     2.893654E+05     ; C-H, prebuilt ca-ha
   320      356         1        0.109690     2.766461E+05     ; C-H, prebuilt c3-hc
   320      357         1        0.109690     2.766461E+05     ; C-H, prebuilt c3-hc
   320      358         1        0.109690     2.766461E+05     ; C-H, prebuilt c3-hc
   359      360         1        0.140580     3.767274E+05     ; C-C, prebuilt ca-cp
   359      364         1        0.140580     3.767274E+05     ; C-C, prebuilt ca-cp
   360      361         1        0.139840     3.858485E+05     ; C-C, prebuilt ca-ca
   360      440         1        0.108600     2.893654E+05     ; C-H, prebuilt ca-ha
   361      362         1        0.139840     3.858485E+05     ; C-C, prebuilt ca-ca
   361      441         1        0.108600     2.893654E+05     ; C-H, prebuilt ca-ha
   362      363         1        0.139840     3.858485E+05     ; C-C, prebuilt ca-ca
   362      368         1        0.149060     2.894491E+05     ; C-C, prebuilt c-ca
   363      364         1        0.139840     3.858485E+05     ; C-C, prebuilt ca-ca
   363      365         1        0.149060     2.894491E+05     ; C-C, prebuilt c-ca
   364      442         1        0.108600     2.893654E+05     ; C-H, prebuilt ca-ha
   365      366         1        0.121830     5.336274E+05     ; C-O, prebuilt c-o
   365      367         1        0.137890     3.578157E+05     ; C-N, prebuilt c-n
   367      368         1        0.137890     3.578157E+05     ; N-C, prebuilt c-n
   367      370         1        0.141210     3.214986E+05     ; N-C, prebuilt ca-n
   368      369         1        0.121830     5.336274E+05     ; C-O, prebuilt c-o
   370      371         1        0.139840     3.858485E+05     ; C-C, prebuilt ca-ca
   370      375         1        0.139840     3.858485E+05     ; C-C, prebuilt ca-ca
   371      372         1        0.139840     3.858485E+05     ; C-C, prebuilt ca-ca
   371      443         1        0.108600     2.893654E+05     ; C-H, prebuilt ca-ha
   372      373         1        0.139840     3.858485E+05     ; C-C, prebuilt ca-ca
   372      444         1        0.108600     2.893654E+05     ; C-H, prebuilt ca-ha
   373      374         1        0.139840     3.858485E+05     ; C-C, prebuilt ca-ca
   373      376         1        0.141210     3.214986E+05     ; C-N, prebuilt ca-n
   374      375         1        0.139840     3.858485E+05     ; C-C, prebuilt ca-ca
   374      445         1        0.108600     2.893654E+05     ; C-H, prebuilt ca-ha
   375      446         1        0.108600     2.893654E+05     ; C-H, prebuilt ca-ha
   376      377         1        0.137890     3.578157E+05     ; N-C, prebuilt c-n
   376      447         1        0.101290     3.373978E+05     ; N-H, prebuilt hn-n
   377      378         1        0.121830     5.336274E+05     ; C-O, prebuilt c-o
   377      379         1        0.149060     2.894491E+05     ; C-C, prebuilt c-ca
   379      380         1        0.139840     3.858485E+05     ; C-C, prebuilt ca-ca
   379      384         1        0.139840     3.858485E+05     ; C-C, prebuilt ca-ca
   380      381         1        0.139840     3.858485E+05     ; C-C, prebuilt ca-ca
   380      448         1        0.108600     2.893654E+05     ; C-H, prebuilt ca-ha
   381      382         1        0.139840     3.858485E+05     ; C-C, prebuilt ca-ca
   381      449         1        0.108600     2.893654E+05     ; C-H, prebuilt ca-ha
   382      383         1        0.139840     3.858485E+05     ; C-C, prebuilt ca-ca
   382      439         1        0.151560     2.686128E+05     ; C-C, prebuilt c3-ca
   383      384         1        0.139840     3.858485E+05     ; C-C, prebuilt ca-ca
   383      450         1        0.108600     2.893654E+05     ; C-H, prebuilt ca-ha
   384      385         1        0.141210     3.214986E+05     ; C-N, prebuilt ca-n
   385      386         1        0.137890     3.578157E+05     ; N-C, prebuilt c-n
   385      390         1        0.137890     3.578157E+05     ; N-C, prebuilt c-n
   386      387         1        0.121830     5.336274E+05     ; C-O, prebuilt c-o
   386      388         1        0.149060     2.894491E+05     ; C-C, prebuilt c-ca
   388      389         1        0.139840     3.858485E+05     ; C-C, prebuilt ca-ca
   388      395         1        0.139840     3.858485E+05     ; C-C, prebuilt ca-ca
   389      390         1        0.149060     2.894491E+05     ; C-C, prebuilt c-ca
   389      392         1        0.139840     3.858485E+05     ; C-C, prebuilt ca-ca
   390      391         1        0.121830     5.336274E+05     ; C-O, prebuilt c-o
   392      393         1        0.139840     3.858485E+05     ; C-C, prebuilt ca-ca
   392      451         1        0.108600     2.893654E+05     ; C-H, prebuilt ca-ha
   393      394         1        0.139840     3.858485E+05     ; C-C, prebuilt ca-ca
   393      396         1        0.149060     2.894491E+05     ; C-C, prebuilt c-ca
   394      395         1        0.139840     3.858485E+05     ; C-C, prebuilt ca-ca
   394      452         1        0.108600     2.893654E+05     ; C-H, prebuilt ca-ha
   395      453         1        0.108600     2.893654E+05     ; C-H, prebuilt ca-ha
   396      397         1        0.121830     5.336274E+05     ; C-O, prebuilt c-o
   396      398         1        0.137890     3.578157E+05     ; C-N, prebuilt c-n
   398      399         1        0.141210     3.214986E+05     ; N-C, prebuilt ca-n
   398      454         1        0.101290     3.373978E+05     ; N-H, prebuilt hn-n
   399      400         1        0.139840     3.858485E+05     ; C-C, prebuilt ca-ca
   399      404         1        0.139840     3.858485E+05     ; C-C, prebuilt ca-ca
   400      401         1        0.139840     3.858485E+05     ; C-C, prebuilt ca-ca
   400      455         1        0.108600     2.893654E+05     ; C-H, prebuilt ca-ha
   401      402         1        0.139840     3.858485E+05     ; C-C, prebuilt ca-ca
   401      456         1        0.108600     2.893654E+05     ; C-H, prebuilt ca-ha
   402      403         1        0.139840     3.858485E+05     ; C-C, prebuilt ca-ca
   402      405         1        0.136960     3.151389E+05     ; C-O, prebuilt ca-os
   403      404         1        0.139840     3.858485E+05     ; C-C, prebuilt ca-ca
   403      457         1        0.108600     2.893654E+05     ; C-H, prebuilt ca-ha
   404      458         1        0.108600     2.893654E+05     ; C-H, prebuilt ca-ha
   405      406         1        0.136960     3.151389E+05     ; O-C, prebuilt ca-os
   406      407         1        0.139840     3.858485E+05     ; C-C, prebuilt ca-ca
   406      411         1        0.139840     3.858485E+05     ; C-C, prebuilt ca-ca
   407      408         1        0.139840     3.858485E+05     ; C-C, prebuilt ca-ca
   407      459         1        0.108600     2.893654E+05     ; C-H, prebuilt ca-ha
   408      409         1        0.139840     3.858485E+05     ; C-C, prebuilt ca-ca
   408      460         1        0.108600     2.893654E+05     ; C-H, prebuilt ca-ha
   409      410         1        0.139840     3.858485E+05     ; C-C, prebuilt ca-ca
   409      461         1        0.108600     2.893654E+05     ; C-H, prebuilt ca-ha
   410      411         1        0.139840     3.858485E+05     ; C-C, prebuilt ca-ca
   410      462         1        0.108600     2.893654E+05     ; C-H, prebuilt ca-ha
   411      412         1        0.136960     3.151389E+05     ; C-O, prebuilt ca-os
   412      413         1        0.136960     3.151389E+05     ; O-C, prebuilt ca-os
   413      414         1        0.139840     3.858485E+05     ; C-C, prebuilt ca-ca
   413      418         1        0.139840     3.858485E+05     ; C-C, prebuilt ca-ca
   414      415         1        0.139840     3.858485E+05     ; C-C, prebuilt ca-ca
   414      463         1        0.108600     2.893654E+05     ; C-H, prebuilt ca-ha
   415      416         1        0.139840     3.858485E+05     ; C-C, prebuilt ca-ca
   415      464         1        0.108600     2.893654E+05     ; C-H, prebuilt ca-ha
   416      417         1        0.139840     3.858485E+05     ; C-C, prebuilt ca-ca
   416      419         1        0.141210     3.214986E+05     ; C-N, prebuilt ca-n
   417      418         1        0.139840     3.858485E+05     ; C-C, prebuilt ca-ca
   417      465         1        0.108600     2.893654E+05     ; C-H, prebuilt ca-ha
   418      466         1        0.108600     2.893654E+05     ; C-H, prebuilt ca-ha
   419      420         1        0.137890     3.578157E+05     ; N-C, prebuilt c-n
   419      467         1        0.101290     3.373978E+05     ; N-H, prebuilt hn-n
   420      421         1        0.121830     5.336274E+05     ; C-O, prebuilt c-o
   420      422         1        0.149060     2.894491E+05     ; C-C, prebuilt c-ca
   422      423         1        0.139840     3.858485E+05     ; C-C, prebuilt ca-ca
   422      427         1        0.139840     3.858485E+05     ; C-C, prebuilt ca-ca
   423      424         1        0.139840     3.858485E+05     ; C-C, prebuilt ca-ca
   423      468         1        0.108600     2.893654E+05     ; C-H, prebuilt ca-ha
   424      425         1        0.139840     3.858485E+05     ; C-C, prebuilt ca-ca
   424      469         1        0.108600     2.893654E+05     ; C-H, prebuilt ca-ha
   425      426         1        0.139840     3.858485E+05     ; C-C, prebuilt ca-ca
   425      428         1        0.141210     3.214986E+05     ; C-N, prebuilt ca-n
   426      427         1        0.139840     3.858485E+05     ; C-C, prebuilt ca-ca
   426      470         1        0.108600     2.893654E+05     ; C-H, prebuilt ca-ha
   427      471         1        0.108600     2.893654E+05     ; C-H, prebuilt ca-ha
   428      429         1        0.137890     3.578157E+05     ; N-C, prebuilt c-n
   428      433         1        0.137890     3.578157E+05     ; N-C, prebuilt c-n
   429      430         1        0.121830     5.336274E+05     ; C-O, prebuilt c-o
   429      431         1        0.149060     2.894491E+05     ; C-C, prebuilt c-ca
   431      432         1        0.139840     3.858485E+05     ; C-C, prebuilt ca-ca
   431      438         1        0.139840     3.858485E+05     ; C-C, prebuilt ca-ca
   432      433         1        0.149060     2.894491E+05     ; C-C, prebuilt c-ca
   432      435         1        0.139840     3.858485E+05     ; C-C, prebuilt ca-ca
   433      434         1        0.121830     5.336274E+05     ; C-O, prebuilt c-o
   435      436         1        0.140580     3.767274E+05     ; C-C, prebuilt ca-cp
   435      472         1        0.108600     2.893654E+05     ; C-H, prebuilt ca-ha
   436      437         1        0.140580     3.767274E+05     ; C-C, prebuilt ca-cp
   436      478         1        0.148540     2.940515E+05     ; C-C, prebuilt cp-cp
   437      438         1        0.139840     3.858485E+05     ; C-C, prebuilt ca-ca
   437      473         1        0.108600     2.893654E+05     ; C-H, prebuilt ca-ha
   438      474         1        0.108600     2.893654E+05     ; C-H, prebuilt ca-ha
   439      475         1        0.109690     2.766461E+05     ; C-H, prebuilt c3-hc
   439      476         1        0.109690     2.766461E+05     ; C-H, prebuilt c3-hc
   439      477         1        0.109690     2.766461E+05     ; C-H, prebuilt c3-hc
   478      479         1        0.140580     3.767274E+05     ; C-C, prebuilt ca-cp
   478      483         1        0.140580     3.767274E+05     ; C-C, prebuilt ca-cp
   479      480         1        0.139840     3.858485E+05     ; C-C, prebuilt ca-ca
   479      559         1        0.108600     2.893654E+05     ; C-H, prebuilt ca-ha
   480      481         1        0.139840     3.858485E+05     ; C-C, prebuilt ca-ca
   480      560         1        0.108600     2.893654E+05     ; C-H, prebuilt ca-ha
   481      482         1        0.139840     3.858485E+05     ; C-C, prebuilt ca-ca
   481      487         1        0.149060     2.894491E+05     ; C-C, prebuilt c-ca
   482      483         1        0.139840     3.858485E+05     ; C-C, prebuilt ca-ca
   482      484         1        0.149060     2.894491E+05     ; C-C, prebuilt c-ca
   483      561         1        0.108600     2.893654E+05     ; C-H, prebuilt ca-ha
   484      485         1        0.121830     5.336274E+05     ; C-O, prebuilt c-o
   484      486         1        0.137890     3.578157E+05     ; C-N, prebuilt c-n
   486      487         1        0.137890     3.578157E+05     ; N-C, prebuilt c-n
   486      489         1        0.141210     3.214986E+05     ; N-C, prebuilt ca-n
   487      488         1        0.121830     5.336274E+05     ; C-O, prebuilt c-o
   489      490         1        0.139840     3.858485E+05     ; C-C, prebuilt ca-ca
   489      494         1        0.139840     3.858485E+05     ; C-C, prebuilt ca-ca
   490      491         1        0.139840     3.858485E+05     ; C-C, prebuilt ca-ca
   490      562         1        0.108600     2.893654E+05     ; C-H, prebuilt ca-ha
   491      492         1        0.139840     3.858485E+05     ; C-C, prebuilt ca-ca
   491      563         1        0.108600     2.893654E+05     ; C-H, prebuilt ca-ha
   492      493         1        0.139840     3.858485E+05     ; C-C, prebuilt ca-ca
   492      495         1        0.141210     3.214986E+05     ; C-N, prebuilt ca-n
   493      494         1        0.139840     3.858485E+05     ; C-C, prebuilt ca-ca
   493      564         1        0.108600     2.893654E+05     ; C-H, prebuilt ca-ha
   494      565         1        0.108600     2.893654E+05     ; C-H, prebuilt ca-ha
   495      496         1        0.137890     3.578157E+05     ; N-C, prebuilt c-n
   495      566         1        0.101290     3.373978E+05     ; N-H, prebuilt hn-n
   496      497         1        0.121830     5.336274E+05     ; C-O, prebuilt c-o
   496      498         1        0.149060     2.894491E+05     ; C-C, prebuilt c-ca
   498      499         1        0.139840     3.858485E+05     ; C-C, prebuilt ca-ca
   498      503         1        0.139840     3.858485E+05     ; C-C, prebuilt ca-ca
   499      500         1        0.139840     3.858485E+05     ; C-C, prebuilt ca-ca
   499      567         1        0.108600     2.893654E+05     ; C-H, prebuilt ca-ha
   500      501         1        0.139840     3.858485E+05     ; C-C, prebuilt ca-ca
   500      568         1        0.108600     2.893654E+05     ; C-H, prebuilt ca-ha
   501      502         1        0.139840     3.858485E+05     ; C-C, prebuilt ca-ca
   501      558         1        0.151560     2.686128E+05     ; C-C, prebuilt c3-ca
   502      503         1        0.139840     3.858485E+05     ; C-C, prebuilt ca-ca
   502      569         1        0.108600     2.893654E+05     ; C-H, prebuilt ca-ha
   503      504         1        0.141210     3.214986E+05     ; C-N, prebuilt ca-n
   504      505         1        0.137890     3.578157E+05     ; N-C, prebuilt c-n
   504      509         1        0.137890     3.578157E+05     ; N-C, prebuilt c-n
   505      506         1        0.121830     5.336274E+05     ; C-O, prebuilt c-o
   505      507         1        0.149060     2.894491E+05     ; C-C, prebuilt c-ca
   507      508         1        0.139840     3.858485E+05     ; C-C, prebuilt ca-ca
   507      514         1        0.139840     3.858485E+05     ; C-C, prebuilt ca-ca
   508      509         1        0.149060     2.894491E+05     ; C-C, prebuilt c-ca
   508      511         1        0.139840     3.858485E+05     ; C-C, prebuilt ca-ca
   509      510         1        0.121830     5.336274E+05     ; C-O, prebuilt c-o
   511      512         1        0.139840     3.858485E+05     ; C-C, prebuilt ca-ca
   511      570         1        0.108600     2.893654E+05     ; C-H, prebuilt ca-ha
   512      513         1        0.139840     3.858485E+05     ; C-C, prebuilt ca-ca
   512      515         1        0.149060     2.894491E+05     ; C-C, prebuilt c-ca
   513      514         1        0.139840     3.858485E+05     ; C-C, prebuilt ca-ca
   513      571         1        0.108600     2.893654E+05     ; C-H, prebuilt ca-ha
   514      572         1        0.108600     2.893654E+05     ; C-H, prebuilt ca-ha
   515      516         1        0.121830     5.336274E+05     ; C-O, prebuilt c-o
   515      517         1        0.137890     3.578157E+05     ; C-N, prebuilt c-n
   517      518         1        0.141210     3.214986E+05     ; N-C, prebuilt ca-n
   517      573         1        0.101290     3.373978E+05     ; N-H, prebuilt hn-n
   518      519         1        0.139840     3.858485E+05     ; C-C, prebuilt ca-ca
   518      523         1        0.139840     3.858485E+05     ; C-C, prebuilt ca-ca
   519      520         1        0.139840     3.858485E+05     ; C-C, prebuilt ca-ca
   519      574         1        0.108600     2.893654E+05     ; C-H, prebuilt ca-ha
   520      521         1        0.139840     3.858485E+05     ; C-C, prebuilt ca-ca
   520      575         1        0.108600     2.893654E+05     ; C-H, prebuilt ca-ha
   521      522         1        0.139840     3.858485E+05     ; C-C, prebuilt ca-ca
   521      524         1        0.136960     3.151389E+05     ; C-O, prebuilt ca-os
   522      523         1        0.139840     3.858485E+05     ; C-C, prebuilt ca-ca
   522      576         1        0.108600     2.893654E+05     ; C-H, prebuilt ca-ha
   523      577         1        0.108600     2.893654E+05     ; C-H, prebuilt ca-ha
   524      525         1        0.136960     3.151389E+05     ; O-C, prebuilt ca-os
   525      526         1        0.139840     3.858485E+05     ; C-C, prebuilt ca-ca
   525      530         1        0.139840     3.858485E+05     ; C-C, prebuilt ca-ca
   526      527         1        0.139840     3.858485E+05     ; C-C, prebuilt ca-ca
   526      578         1        0.108600     2.893654E+05     ; C-H, prebuilt ca-ha
   527      528         1        0.139840     3.858485E+05     ; C-C, prebuilt ca-ca
   527      579         1        0.108600     2.893654E+05     ; C-H, prebuilt ca-ha
   528      529         1        0.139840     3.858485E+05     ; C-C, prebuilt ca-ca
   528      580         1        0.108600     2.893654E+05     ; C-H, prebuilt ca-ha
   529      530         1        0.139840     3.858485E+05     ; C-C, prebuilt ca-ca
   529      581         1        0.108600     2.893654E+05     ; C-H, prebuilt ca-ha
   530      531         1        0.136960     3.151389E+05     ; C-O, prebuilt ca-os
   531      532         1        0.136960     3.151389E+05     ; O-C, prebuilt ca-os
   532      533         1        0.139840     3.858485E+05     ; C-C, prebuilt ca-ca
   532      537         1        0.139840     3.858485E+05     ; C-C, prebuilt ca-ca
   533      534         1        0.139840     3.858485E+05     ; C-C, prebuilt ca-ca
   533      582         1        0.108600     2.893654E+05     ; C-H, prebuilt ca-ha
   534      535         1        0.139840     3.858485E+05     ; C-C, prebuilt ca-ca
   534      583         1        0.108600     2.893654E+05     ; C-H, prebuilt ca-ha
   535      536         1        0.139840     3.858485E+05     ; C-C, prebuilt ca-ca
   535      538         1        0.141210     3.214986E+05     ; C-N, prebuilt ca-n
   536      537         1        0.139840     3.858485E+05     ; C-C, prebuilt ca-ca
   536      584         1        0.108600     2.893654E+05     ; C-H, prebuilt ca-ha
   537      585         1        0.108600     2.893654E+05     ; C-H, prebuilt ca-ha
   538      539         1        0.137890     3.578157E+05     ; N-C, prebuilt c-n
   538      586         1        0.101290     3.373978E+05     ; N-H, prebuilt hn-n
   539      540         1        0.121830     5.336274E+05     ; C-O, prebuilt c-o
   539      541         1        0.149060     2.894491E+05     ; C-C, prebuilt c-ca
   541      542         1        0.139840     3.858485E+05     ; C-C, prebuilt ca-ca
   541      546         1        0.139840     3.858485E+05     ; C-C, prebuilt ca-ca
   542      543         1        0.139840     3.858485E+05     ; C-C, prebuilt ca-ca
   542      587         1        0.108600     2.893654E+05     ; C-H, prebuilt ca-ha
   543      544         1        0.139840     3.858485E+05     ; C-C, prebuilt ca-ca
   543      588         1        0.108600     2.893654E+05     ; C-H, prebuilt ca-ha
   544      545         1        0.139840     3.858485E+05     ; C-C, prebuilt ca-ca
   544      547         1        0.141210     3.214986E+05     ; C-N, prebuilt ca-n
   545      546         1        0.139840     3.858485E+05     ; C-C, prebuilt ca-ca
   545      589         1        0.108600     2.893654E+05     ; C-H, prebuilt ca-ha
   546      590         1        0.108600     2.893654E+05     ; C-H, prebuilt ca-ha
   547      548         1        0.137890     3.578157E+05     ; N-C, prebuilt c-n
   547      552         1        0.137890     3.578157E+05     ; N-C, prebuilt c-n
   548      549         1        0.121830     5.336274E+05     ; C-O, prebuilt c-o
   548      550         1        0.149060     2.894491E+05     ; C-C, prebuilt c-ca
   550      551         1        0.139840     3.858485E+05     ; C-C, prebuilt ca-ca
   550      557         1        0.139840     3.858485E+05     ; C-C, prebuilt ca-ca
   551      552         1        0.149060     2.894491E+05     ; C-C, prebuilt c-ca
   551      554         1        0.139840     3.858485E+05     ; C-C, prebuilt ca-ca
   552      553         1        0.121830     5.336274E+05     ; C-O, prebuilt c-o
   554      555         1        0.140580     3.767274E+05     ; C-C, prebuilt ca-cp
   554      591         1        0.108600     2.893654E+05     ; C-H, prebuilt ca-ha
   555      556         1        0.140580     3.767274E+05     ; C-C, prebuilt ca-cp
   555      597         1        0.148540     2.940515E+05     ; C-C, prebuilt cp-cp
   556      557         1        0.139840     3.858485E+05     ; C-C, prebuilt ca-ca
   556      592         1        0.108600     2.893654E+05     ; C-H, prebuilt ca-ha
   557      593         1        0.108600     2.893654E+05     ; C-H, prebuilt ca-ha
   558      594         1        0.109690     2.766461E+05     ; C-H, prebuilt c3-hc
   558      595         1        0.109690     2.766461E+05     ; C-H, prebuilt c3-hc
   558      596         1        0.109690     2.766461E+05     ; C-H, prebuilt c3-hc
   597      598         1        0.140580     3.767274E+05     ; C-C, prebuilt ca-cp
   597      602         1        0.140580     3.767274E+05     ; C-C, prebuilt ca-cp
   598      599         1        0.139840     3.858485E+05     ; C-C, prebuilt ca-ca
   598      678         1        0.108600     2.893654E+05     ; C-H, prebuilt ca-ha
   599      600         1        0.139840     3.858485E+05     ; C-C, prebuilt ca-ca
   599      679         1        0.108600     2.893654E+05     ; C-H, prebuilt ca-ha
   600      601         1        0.139840     3.858485E+05     ; C-C, prebuilt ca-ca
   600      606         1        0.149060     2.894491E+05     ; C-C, prebuilt c-ca
   601      602         1        0.139840     3.858485E+05     ; C-C, prebuilt ca-ca
   601      603         1        0.149060     2.894491E+05     ; C-C, prebuilt c-ca
   602      680         1        0.108600     2.893654E+05     ; C-H, prebuilt ca-ha
   603      604         1        0.121830     5.336274E+05     ; C-O, prebuilt c-o
   603      605         1        0.137890     3.578157E+05     ; C-N, prebuilt c-n
   605      606         1        0.137890     3.578157E+05     ; N-C, prebuilt c-n
   605      608         1        0.141210     3.214986E+05     ; N-C, prebuilt ca-n
   606      607         1        0.121830     5.336274E+05     ; C-O, prebuilt c-o
   608      609         1        0.139840     3.858485E+05     ; C-C, prebuilt ca-ca
   608      613         1        0.139840     3.858485E+05     ; C-C, prebuilt ca-ca
   609      610         1        0.139840     3.858485E+05     ; C-C, prebuilt ca-ca
   609      681         1        0.108600     2.893654E+05     ; C-H, prebuilt ca-ha
   610      611         1        0.139840     3.858485E+05     ; C-C, prebuilt ca-ca
   610      682         1        0.108600     2.893654E+05     ; C-H, prebuilt ca-ha
   611      612         1        0.139840     3.858485E+05     ; C-C, prebuilt ca-ca
   611      614         1        0.141210     3.214986E+05     ; C-N, prebuilt ca-n
   612      613         1        0.139840     3.858485E+05     ; C-C, prebuilt ca-ca
   612      683         1        0.108600     2.893654E+05     ; C-H, prebuilt ca-ha
   613      684         1        0.108600     2.893654E+05     ; C-H, prebuilt ca-ha
   614      615         1        0.137890     3.578157E+05     ; N-C, prebuilt c-n
   614      685         1        0.101290     3.373978E+05     ; N-H, prebuilt hn-n
   615      616         1        0.121830     5.336274E+05     ; C-O, prebuilt c-o
   615      617         1        0.149060     2.894491E+05     ; C-C, prebuilt c-ca
   617      618         1        0.139840     3.858485E+05     ; C-C, prebuilt ca-ca
   617      622         1        0.139840     3.858485E+05     ; C-C, prebuilt ca-ca
   618      619         1        0.139840     3.858485E+05     ; C-C, prebuilt ca-ca
   618      686         1        0.108600     2.893654E+05     ; C-H, prebuilt ca-ha
   619      620         1        0.139840     3.858485E+05     ; C-C, prebuilt ca-ca
   619      687         1        0.108600     2.893654E+05     ; C-H, prebuilt ca-ha
   620      621         1        0.139840     3.858485E+05     ; C-C, prebuilt ca-ca
   620      677         1        0.151560     2.686128E+05     ; C-C, prebuilt c3-ca
   621      622         1        0.139840     3.858485E+05     ; C-C, prebuilt ca-ca
   621      688         1        0.108600     2.893654E+05     ; C-H, prebuilt ca-ha
   622      623         1        0.141210     3.214986E+05     ; C-N, prebuilt ca-n
   623      624         1        0.137890     3.578157E+05     ; N-C, prebuilt c-n
   623      628         1        0.137890     3.578157E+05     ; N-C, prebuilt c-n
   624      625         1        0.121830     5.336274E+05     ; C-O, prebuilt c-o
   624      626         1        0.149060     2.894491E+05     ; C-C, prebuilt c-ca
   626      627         1        0.139840     3.858485E+05     ; C-C, prebuilt ca-ca
   626      633         1        0.139840     3.858485E+05     ; C-C, prebuilt ca-ca
   627      628         1        0.149060     2.894491E+05     ; C-C, prebuilt c-ca
   627      630         1        0.139840     3.858485E+05     ; C-C, prebuilt ca-ca
   628      629         1        0.121830     5.336274E+05     ; C-O, prebuilt c-o
   630      631         1        0.139840     3.858485E+05     ; C-C, prebuilt ca-ca
   630      689         1        0.108600     2.893654E+05     ; C-H, prebuilt ca-ha
   631      632         1        0.139840     3.858485E+05     ; C-C, prebuilt ca-ca
   631      634         1        0.149060     2.894491E+05     ; C-C, prebuilt c-ca
   632      633         1        0.139840     3.858485E+05     ; C-C, prebuilt ca-ca
   632      690         1        0.108600     2.893654E+05     ; C-H, prebuilt ca-ha
   633      691         1        0.108600     2.893654E+05     ; C-H, prebuilt ca-ha
   634      635         1        0.121830     5.336274E+05     ; C-O, prebuilt c-o
   634      636         1        0.137890     3.578157E+05     ; C-N, prebuilt c-n
   636      637         1        0.141210     3.214986E+05     ; N-C, prebuilt ca-n
   636      692         1        0.101290     3.373978E+05     ; N-H, prebuilt hn-n
   637      638         1        0.139840     3.858485E+05     ; C-C, prebuilt ca-ca
   637      642         1        0.139840     3.858485E+05     ; C-C, prebuilt ca-ca
   638      639         1        0.139840     3.858485E+05     ; C-C, prebuilt ca-ca
   638      693         1        0.108600     2.893654E+05     ; C-H, prebuilt ca-ha
   639      640         1        0.139840     3.858485E+05     ; C-C, prebuilt ca-ca
   639      694         1        0.108600     2.893654E+05     ; C-H, prebuilt ca-ha
   640      641         1        0.139840     3.858485E+05     ; C-C, prebuilt ca-ca
   640      643         1        0.136960     3.151389E+05     ; C-O, prebuilt ca-os
   641      642         1        0.139840     3.858485E+05     ; C-C, prebuilt ca-ca
   641      695         1        0.108600     2.893654E+05     ; C-H, prebuilt ca-ha
   642      696         1        0.108600     2.893654E+05     ; C-H, prebuilt ca-ha
   643      644         1        0.136960     3.151389E+05     ; O-C, prebuilt ca-os
   644      645         1        0.139840     3.858485E+05     ; C-C, prebuilt ca-ca
   644      649         1        0.139840     3.858485E+05     ; C-C, prebuilt ca-ca
   645      646         1        0.139840     3.858485E+05     ; C-C, prebuilt ca-ca
   645      697         1        0.108600     2.893654E+05     ; C-H, prebuilt ca-ha
   646      647         1        0.139840     3.858485E+05     ; C-C, prebuilt ca-ca
   646      698         1        0.108600     2.893654E+05     ; C-H, prebuilt ca-ha
   647      648         1        0.139840     3.858485E+05     ; C-C, prebuilt ca-ca
   647      699         1        0.108600     2.893654E+05     ; C-H, prebuilt ca-ha
   648      649         1        0.139840     3.858485E+05     ; C-C, prebuilt ca-ca
   648      700         1        0.108600     2.893654E+05     ; C-H, prebuilt ca-ha
   649      650         1        0.136960     3.151389E+05     ; C-O, prebuilt ca-os
   650      651         1        0.136960     3.151389E+05     ; O-C, prebuilt ca-os
   651      652         1        0.139840     3.858485E+05     ; C-C, prebuilt ca-ca
   651      656         1        0.139840     3.858485E+05     ; C-C, prebuilt ca-ca
   652      653         1        0.139840     3.858485E+05     ; C-C, prebuilt ca-ca
   652      701         1        0.108600     2.893654E+05     ; C-H, prebuilt ca-ha
   653      654         1        0.139840     3.858485E+05     ; C-C, prebuilt ca-ca
   653      702         1        0.108600     2.893654E+05     ; C-H, prebuilt ca-ha
   654      655         1        0.139840     3.858485E+05     ; C-C, prebuilt ca-ca
   654      657         1        0.141210     3.214986E+05     ; C-N, prebuilt ca-n
   655      656         1        0.139840     3.858485E+05     ; C-C, prebuilt ca-ca
   655      703         1        0.108600     2.893654E+05     ; C-H, prebuilt ca-ha
   656      704         1        0.108600     2.893654E+05     ; C-H, prebuilt ca-ha
   657      658         1        0.137890     3.578157E+05     ; N-C, prebuilt c-n
   657      705         1        0.101290     3.373978E+05     ; N-H, prebuilt hn-n
   658      659         1        0.121830     5.336274E+05     ; C-O, prebuilt c-o
   658      660         1        0.149060     2.894491E+05     ; C-C, prebuilt c-ca
   660      661         1        0.139840     3.858485E+05     ; C-C, prebuilt ca-ca
   660      665         1        0.139840     3.858485E+05     ; C-C, prebuilt ca-ca
   661      662         1        0.139840     3.858485E+05     ; C-C, prebuilt ca-ca
   661      706         1        0.108600     2.893654E+05     ; C-H, prebuilt ca-ha
   662      663         1        0.139840     3.858485E+05     ; C-C, prebuilt ca-ca
   662      707         1        0.108600     2.893654E+05     ; C-H, prebuilt ca-ha
   663      664         1        0.139840     3.858485E+05     ; C-C, prebuilt ca-ca
   663      666         1        0.141210     3.214986E+05     ; C-N, prebuilt ca-n
   664      665         1        0.139840     3.858485E+05     ; C-C, prebuilt ca-ca
   664      708         1        0.108600     2.893654E+05     ; C-H, prebuilt ca-ha
   665      709         1        0.108600     2.893654E+05     ; C-H, prebuilt ca-ha
   666      667         1        0.137890     3.578157E+05     ; N-C, prebuilt c-n
   666      671         1        0.137890     3.578157E+05     ; N-C, prebuilt c-n
   667      668         1        0.121830     5.336274E+05     ; C-O, prebuilt c-o
   667      669         1        0.149060     2.894491E+05     ; C-C, prebuilt c-ca
   669      670         1        0.139840     3.858485E+05     ; C-C, prebuilt ca-ca
   669      676         1        0.139840     3.858485E+05     ; C-C, prebuilt ca-ca
   670      671         1        0.149060     2.894491E+05     ; C-C, prebuilt c-ca
   670      673         1        0.139840     3.858485E+05     ; C-C, prebuilt ca-ca
   671      672         1        0.121830     5.336274E+05     ; C-O, prebuilt c-o
   673      674         1        0.140580     3.767274E+05     ; C-C, prebuilt ca-cp
   673      710         1        0.108600     2.893654E+05     ; C-H, prebuilt ca-ha
   674      675         1        0.140580     3.767274E+05     ; C-C, prebuilt ca-cp
   674      716         1        0.148540     2.940515E+05     ; C-C, prebuilt cp-cp
   675      676         1        0.139840     3.858485E+05     ; C-C, prebuilt ca-ca
   675      711         1        0.108600     2.893654E+05     ; C-H, prebuilt ca-ha
   676      712         1        0.108600     2.893654E+05     ; C-H, prebuilt ca-ha
   677      713         1        0.109690     2.766461E+05     ; C-H, prebuilt c3-hc
   677      714         1        0.109690     2.766461E+05     ; C-H, prebuilt c3-hc
   677      715         1        0.109690     2.766461E+05     ; C-H, prebuilt c3-hc
   716      717         1        0.140580     3.767274E+05     ; C-C, prebuilt ca-cp
   716      721         1        0.140580     3.767274E+05     ; C-C, prebuilt ca-cp
   717      718         1        0.139840     3.858485E+05     ; C-C, prebuilt ca-ca
   717      797         1        0.108600     2.893654E+05     ; C-H, prebuilt ca-ha
   718      719         1        0.139840     3.858485E+05     ; C-C, prebuilt ca-ca
   718      798         1        0.108600     2.893654E+05     ; C-H, prebuilt ca-ha
   719      720         1        0.139840     3.858485E+05     ; C-C, prebuilt ca-ca
   719      725         1        0.149060     2.894491E+05     ; C-C, prebuilt c-ca
   720      721         1        0.139840     3.858485E+05     ; C-C, prebuilt ca-ca
   720      722         1        0.149060     2.894491E+05     ; C-C, prebuilt c-ca
   721      799         1        0.108600     2.893654E+05     ; C-H, prebuilt ca-ha
   722      723         1        0.121830     5.336274E+05     ; C-O, prebuilt c-o
   722      724         1        0.137890     3.578157E+05     ; C-N, prebuilt c-n
   724      725         1        0.137890     3.578157E+05     ; N-C, prebuilt c-n
   724      727         1        0.141210     3.214986E+05     ; N-C, prebuilt ca-n
   725      726         1        0.121830     5.336274E+05     ; C-O, prebuilt c-o
   727      728         1        0.139840     3.858485E+05     ; C-C, prebuilt ca-ca
   727      732         1        0.139840     3.858485E+05     ; C-C, prebuilt ca-ca
   728      729         1        0.139840     3.858485E+05     ; C-C, prebuilt ca-ca
   728      800         1        0.108600     2.893654E+05     ; C-H, prebuilt ca-ha
   729      730         1        0.139840     3.858485E+05     ; C-C, prebuilt ca-ca
   729      801         1        0.108600     2.893654E+05     ; C-H, prebuilt ca-ha
   730      731         1        0.139840     3.858485E+05     ; C-C, prebuilt ca-ca
   730      733         1        0.141210     3.214986E+05     ; C-N, prebuilt ca-n
   731      732         1        0.139840     3.858485E+05     ; C-C, prebuilt ca-ca
   731      802         1        0.108600     2.893654E+05     ; C-H, prebuilt ca-ha
   732      803         1        0.108600     2.893654E+05     ; C-H, prebuilt ca-ha
   733      734         1        0.137890     3.578157E+05     ; N-C, prebuilt c-n
   733      804         1        0.101290     3.373978E+05     ; N-H, prebuilt hn-n
   734      735         1        0.121830     5.336274E+05     ; C-O, prebuilt c-o
   734      736         1        0.149060     2.894491E+05     ; C-C, prebuilt c-ca
   736      737         1        0.139840     3.858485E+05     ; C-C, prebuilt ca-ca
   736      741         1        0.139840     3.858485E+05     ; C-C, prebuilt ca-ca
   737      738         1        0.139840     3.858485E+05     ; C-C, prebuilt ca-ca
   737      805         1        0.108600     2.893654E+05     ; C-H, prebuilt ca-ha
   738      739         1        0.139840     3.858485E+05     ; C-C, prebuilt ca-ca
   738      806         1        0.108600     2.893654E+05     ; C-H, prebuilt ca-ha
   739      740         1        0.139840     3.858485E+05     ; C-C, prebuilt ca-ca
   739      796         1        0.151560     2.686128E+05     ; C-C, prebuilt c3-ca
   740      741         1        0.139840     3.858485E+05     ; C-C, prebuilt ca-ca
   740      807         1        0.108600     2.893654E+05     ; C-H, prebuilt ca-ha
   741      742         1        0.141210     3.214986E+05     ; C-N, prebuilt ca-n
   742      743         1        0.137890     3.578157E+05     ; N-C, prebuilt c-n
   742      747         1        0.137890     3.578157E+05     ; N-C, prebuilt c-n
   743      744         1        0.121830     5.336274E+05     ; C-O, prebuilt c-o
   743      745         1        0.149060     2.894491E+05     ; C-C, prebuilt c-ca
   745      746         1        0.139840     3.858485E+05     ; C-C, prebuilt ca-ca
   745      752         1        0.139840     3.858485E+05     ; C-C, prebuilt ca-ca
   746      747         1        0.149060     2.894491E+05     ; C-C, prebuilt c-ca
   746      749         1        0.139840     3.858485E+05     ; C-C, prebuilt ca-ca
   747      748         1        0.121830     5.336274E+05     ; C-O, prebuilt c-o
   749      750         1        0.139840     3.858485E+05     ; C-C, prebuilt ca-ca
   749      808         1        0.108600     2.893654E+05     ; C-H, prebuilt ca-ha
   750      751         1        0.139840     3.858485E+05     ; C-C, prebuilt ca-ca
   750      753         1        0.149060     2.894491E+05     ; C-C, prebuilt c-ca
   751      752         1        0.139840     3.858485E+05     ; C-C, prebuilt ca-ca
   751      809         1        0.108600     2.893654E+05     ; C-H, prebuilt ca-ha
   752      810         1        0.108600     2.893654E+05     ; C-H, prebuilt ca-ha
   753      754         1        0.121830     5.336274E+05     ; C-O, prebuilt c-o
   753      755         1        0.137890     3.578157E+05     ; C-N, prebuilt c-n
   755      756         1        0.141210     3.214986E+05     ; N-C, prebuilt ca-n
   755      811         1        0.101290     3.373978E+05     ; N-H, prebuilt hn-n
   756      757         1        0.139840     3.858485E+05     ; C-C, prebuilt ca-ca
   756      761         1        0.139840     3.858485E+05     ; C-C, prebuilt ca-ca
   757      758         1        0.139840     3.858485E+05     ; C-C, prebuilt ca-ca
   757      812         1        0.108600     2.893654E+05     ; C-H, prebuilt ca-ha
   758      759         1        0.139840     3.858485E+05     ; C-C, prebuilt ca-ca
   758      813         1        0.108600     2.893654E+05     ; C-H, prebuilt ca-ha
   759      760         1        0.139840     3.858485E+05     ; C-C, prebuilt ca-ca
   759      762         1        0.136960     3.151389E+05     ; C-O, prebuilt ca-os
   760      761         1        0.139840     3.858485E+05     ; C-C, prebuilt ca-ca
   760      814         1        0.108600     2.893654E+05     ; C-H, prebuilt ca-ha
   761      815         1        0.108600     2.893654E+05     ; C-H, prebuilt ca-ha
   762      763         1        0.136960     3.151389E+05     ; O-C, prebuilt ca-os
   763      764         1        0.139840     3.858485E+05     ; C-C, prebuilt ca-ca
   763      768         1        0.139840     3.858485E+05     ; C-C, prebuilt ca-ca
   764      765         1        0.139840     3.858485E+05     ; C-C, prebuilt ca-ca
   764      816         1        0.108600     2.893654E+05     ; C-H, prebuilt ca-ha
   765      766         1        0.139840     3.858485E+05     ; C-C, prebuilt ca-ca
   765      817         1        0.108600     2.893654E+05     ; C-H, prebuilt ca-ha
   766      767         1        0.139840     3.858485E+05     ; C-C, prebuilt ca-ca
   766      818         1        0.108600     2.893654E+05     ; C-H, prebuilt ca-ha
   767      768         1        0.139840     3.858485E+05     ; C-C, prebuilt ca-ca
   767      819         1        0.108600     2.893654E+05     ; C-H, prebuilt ca-ha
   768      769         1        0.136960     3.151389E+05     ; C-O, prebuilt ca-os
   769      770         1        0.136960     3.151389E+05     ; O-C, prebuilt ca-os
   770      771         1        0.139840     3.858485E+05     ; C-C, prebuilt ca-ca
   770      775         1        0.139840     3.858485E+05     ; C-C, prebuilt ca-ca
   771      772         1        0.139840     3.858485E+05     ; C-C, prebuilt ca-ca
   771      820         1        0.108600     2.893654E+05     ; C-H, prebuilt ca-ha
   772      773         1        0.139840     3.858485E+05     ; C-C, prebuilt ca-ca
   772      821         1        0.108600     2.893654E+05     ; C-H, prebuilt ca-ha
   773      774         1        0.139840     3.858485E+05     ; C-C, prebuilt ca-ca
   773      776         1        0.141210     3.214986E+05     ; C-N, prebuilt ca-n
   774      775         1        0.139840     3.858485E+05     ; C-C, prebuilt ca-ca
   774      822         1        0.108600     2.893654E+05     ; C-H, prebuilt ca-ha
   775      823         1        0.108600     2.893654E+05     ; C-H, prebuilt ca-ha
   776      777         1        0.137890     3.578157E+05     ; N-C, prebuilt c-n
   776      824         1        0.101290     3.373978E+05     ; N-H, prebuilt hn-n
   777      778         1        0.121830     5.336274E+05     ; C-O, prebuilt c-o
   777      779         1        0.149060     2.894491E+05     ; C-C, prebuilt c-ca
   779      780         1        0.139840     3.858485E+05     ; C-C, prebuilt ca-ca
   779      784         1        0.139840     3.858485E+05     ; C-C, prebuilt ca-ca
   780      781         1        0.139840     3.858485E+05     ; C-C, prebuilt ca-ca
   780      825         1        0.108600     2.893654E+05     ; C-H, prebuilt ca-ha
   781      782         1        0.139840     3.858485E+05     ; C-C, prebuilt ca-ca
   781      826         1        0.108600     2.893654E+05     ; C-H, prebuilt ca-ha
   782      783         1        0.139840     3.858485E+05     ; C-C, prebuilt ca-ca
   782      785         1        0.141210     3.214986E+05     ; C-N, prebuilt ca-n
   783      784         1        0.139840     3.858485E+05     ; C-C, prebuilt ca-ca
   783      827         1        0.108600     2.893654E+05     ; C-H, prebuilt ca-ha
   784      828         1        0.108600     2.893654E+05     ; C-H, prebuilt ca-ha
   785      786         1        0.137890     3.578157E+05     ; N-C, prebuilt c-n
   785      790         1        0.137890     3.578157E+05     ; N-C, prebuilt c-n
   786      787         1        0.121830     5.336274E+05     ; C-O, prebuilt c-o
   786      788         1        0.149060     2.894491E+05     ; C-C, prebuilt c-ca
   788      789         1        0.139840     3.858485E+05     ; C-C, prebuilt ca-ca
   788      795         1        0.139840     3.858485E+05     ; C-C, prebuilt ca-ca
   789      790         1        0.149060     2.894491E+05     ; C-C, prebuilt c-ca
   789      792         1        0.139840     3.858485E+05     ; C-C, prebuilt ca-ca
   790      791         1        0.121830     5.336274E+05     ; C-O, prebuilt c-o
   792      793         1        0.140580     3.767274E+05     ; C-C, prebuilt ca-cp
   792      829         1        0.108600     2.893654E+05     ; C-H, prebuilt ca-ha
   793      794         1        0.140580     3.767274E+05     ; C-C, prebuilt ca-cp
   793      835         1        0.148540     2.940515E+05     ; C-C, prebuilt cp-cp
   794      795         1        0.139840     3.858485E+05     ; C-C, prebuilt ca-ca
   794      830         1        0.108600     2.893654E+05     ; C-H, prebuilt ca-ha
   795      831         1        0.108600     2.893654E+05     ; C-H, prebuilt ca-ha
   796      832         1        0.109690     2.766461E+05     ; C-H, prebuilt c3-hc
   796      833         1        0.109690     2.766461E+05     ; C-H, prebuilt c3-hc
   796      834         1        0.109690     2.766461E+05     ; C-H, prebuilt c3-hc
   835      836         1        0.140580     3.767274E+05     ; C-C, prebuilt ca-cp
   835      840         1        0.140580     3.767274E+05     ; C-C, prebuilt ca-cp
   836      837         1        0.139840     3.858485E+05     ; C-C, prebuilt ca-ca
   836      916         1        0.108600     2.893654E+05     ; C-H, prebuilt ca-ha
   837      838         1        0.139840     3.858485E+05     ; C-C, prebuilt ca-ca
   837      917         1        0.108600     2.893654E+05     ; C-H, prebuilt ca-ha
   838      839         1        0.139840     3.858485E+05     ; C-C, prebuilt ca-ca
   838      844         1        0.149060     2.894491E+05     ; C-C, prebuilt c-ca
   839      840         1        0.139840     3.858485E+05     ; C-C, prebuilt ca-ca
   839      841         1        0.149060     2.894491E+05     ; C-C, prebuilt c-ca
   840      918         1        0.108600     2.893654E+05     ; C-H, prebuilt ca-ha
   841      842         1        0.121830     5.336274E+05     ; C-O, prebuilt c-o
   841      843         1        0.137890     3.578157E+05     ; C-N, prebuilt c-n
   843      844         1        0.137890     3.578157E+05     ; N-C, prebuilt c-n
   843      846         1        0.141210     3.214986E+05     ; N-C, prebuilt ca-n
   844      845         1        0.121830     5.336274E+05     ; C-O, prebuilt c-o
   846      847         1        0.139840     3.858485E+05     ; C-C, prebuilt ca-ca
   846      851         1        0.139840     3.858485E+05     ; C-C, prebuilt ca-ca
   847      848         1        0.139840     3.858485E+05     ; C-C, prebuilt ca-ca
   847      919         1        0.108600     2.893654E+05     ; C-H, prebuilt ca-ha
   848      849         1        0.139840     3.858485E+05     ; C-C, prebuilt ca-ca
   848      920         1        0.108600     2.893654E+05     ; C-H, prebuilt ca-ha
   849      850         1        0.139840     3.858485E+05     ; C-C, prebuilt ca-ca
   849      852         1        0.141210     3.214986E+05     ; C-N, prebuilt ca-n
   850      851         1        0.139840     3.858485E+05     ; C-C, prebuilt ca-ca
   850      921         1        0.108600     2.893654E+05     ; C-H, prebuilt ca-ha
   851      922         1        0.108600     2.893654E+05     ; C-H, prebuilt ca-ha
   852      853         1        0.137890     3.578157E+05     ; N-C, prebuilt c-n
   852      923         1        0.101290     3.373978E+05     ; N-H, prebuilt hn-n
   853      854         1        0.121830     5.336274E+05     ; C-O, prebuilt c-o
   853      855         1        0.149060     2.894491E+05     ; C-C, prebuilt c-ca
   855      856         1        0.139840     3.858485E+05     ; C-C, prebuilt ca-ca
   855      860         1        0.139840     3.858485E+05     ; C-C, prebuilt ca-ca
   856      857         1        0.139840     3.858485E+05     ; C-C, prebuilt ca-ca
   856      924         1        0.108600     2.893654E+05     ; C-H, prebuilt ca-ha
   857      858         1        0.139840     3.858485E+05     ; C-C, prebuilt ca-ca
   857      925         1        0.108600     2.893654E+05     ; C-H, prebuilt ca-ha
   858      859         1        0.139840     3.858485E+05     ; C-C, prebuilt ca-ca
   858      915         1        0.151560     2.686128E+05     ; C-C, prebuilt c3-ca
   859      860         1        0.139840     3.858485E+05     ; C-C, prebuilt ca-ca
   859      926         1        0.108600     2.893654E+05     ; C-H, prebuilt ca-ha
   860      861         1        0.141210     3.214986E+05     ; C-N, prebuilt ca-n
   861      862         1        0.137890     3.578157E+05     ; N-C, prebuilt c-n
   861      866         1        0.137890     3.578157E+05     ; N-C, prebuilt c-n
   862      863         1        0.121830     5.336274E+05     ; C-O, prebuilt c-o
   862      864         1        0.149060     2.894491E+05     ; C-C, prebuilt c-ca
   864      865         1        0.139840     3.858485E+05     ; C-C, prebuilt ca-ca
   864      871         1        0.139840     3.858485E+05     ; C-C, prebuilt ca-ca
   865      866         1        0.149060     2.894491E+05     ; C-C, prebuilt c-ca
   865      868         1        0.139840     3.858485E+05     ; C-C, prebuilt ca-ca
   866      867         1        0.121830     5.336274E+05     ; C-O, prebuilt c-o
   868      869         1        0.139840     3.858485E+05     ; C-C, prebuilt ca-ca
   868      927         1        0.108600     2.893654E+05     ; C-H, prebuilt ca-ha
   869      870         1        0.139840     3.858485E+05     ; C-C, prebuilt ca-ca
   869      872         1        0.149060     2.894491E+05     ; C-C, prebuilt c-ca
   870      871         1        0.139840     3.858485E+05     ; C-C, prebuilt ca-ca
   870      928         1        0.108600     2.893654E+05     ; C-H, prebuilt ca-ha
   871      929         1        0.108600     2.893654E+05     ; C-H, prebuilt ca-ha
   872      873         1        0.121830     5.336274E+05     ; C-O, prebuilt c-o
   872      874         1        0.137890     3.578157E+05     ; C-N, prebuilt c-n
   874      875         1        0.141210     3.214986E+05     ; N-C, prebuilt ca-n
   874      930         1        0.101290     3.373978E+05     ; N-H, prebuilt hn-n
   875      876         1        0.139840     3.858485E+05     ; C-C, prebuilt ca-ca
   875      880         1        0.139840     3.858485E+05     ; C-C, prebuilt ca-ca
   876      877         1        0.139840     3.858485E+05     ; C-C, prebuilt ca-ca
   876      931         1        0.108600     2.893654E+05     ; C-H, prebuilt ca-ha
   877      878         1        0.139840     3.858485E+05     ; C-C, prebuilt ca-ca
   877      932         1        0.108600     2.893654E+05     ; C-H, prebuilt ca-ha
   878      879         1        0.139840     3.858485E+05     ; C-C, prebuilt ca-ca
   878      881         1        0.136960     3.151389E+05     ; C-O, prebuilt ca-os
   879      880         1        0.139840     3.858485E+05     ; C-C, prebuilt ca-ca
   879      933         1        0.108600     2.893654E+05     ; C-H, prebuilt ca-ha
   880      934         1        0.108600     2.893654E+05     ; C-H, prebuilt ca-ha
   881      882         1        0.136960     3.151389E+05     ; O-C, prebuilt ca-os
   882      883         1        0.139840     3.858485E+05     ; C-C, prebuilt ca-ca
   882      887         1        0.139840     3.858485E+05     ; C-C, prebuilt ca-ca
   883      884         1        0.139840     3.858485E+05     ; C-C, prebuilt ca-ca
   883      935         1        0.108600     2.893654E+05     ; C-H, prebuilt ca-ha
   884      885         1        0.139840     3.858485E+05     ; C-C, prebuilt ca-ca
   884      936         1        0.108600     2.893654E+05     ; C-H, prebuilt ca-ha
   885      886         1        0.139840     3.858485E+05     ; C-C, prebuilt ca-ca
   885      937         1        0.108600     2.893654E+05     ; C-H, prebuilt ca-ha
   886      887         1        0.139840     3.858485E+05     ; C-C, prebuilt ca-ca
   886      938         1        0.108600     2.893654E+05     ; C-H, prebuilt ca-ha
   887      888         1        0.136960     3.151389E+05     ; C-O, prebuilt ca-os
   888      889         1        0.136960     3.151389E+05     ; O-C, prebuilt ca-os
   889      890         1        0.139840     3.858485E+05     ; C-C, prebuilt ca-ca
   889      894         1        0.139840     3.858485E+05     ; C-C, prebuilt ca-ca
   890      891         1        0.139840     3.858485E+05     ; C-C, prebuilt ca-ca
   890      939         1        0.108600     2.893654E+05     ; C-H, prebuilt ca-ha
   891      892         1        0.139840     3.858485E+05     ; C-C, prebuilt ca-ca
   891      940         1        0.108600     2.893654E+05     ; C-H, prebuilt ca-ha
   892      893         1        0.139840     3.858485E+05     ; C-C, prebuilt ca-ca
   892      895         1        0.141210     3.214986E+05     ; C-N, prebuilt ca-n
   893      894         1        0.139840     3.858485E+05     ; C-C, prebuilt ca-ca
   893      941         1        0.108600     2.893654E+05     ; C-H, prebuilt ca-ha
   894      942         1        0.108600     2.893654E+05     ; C-H, prebuilt ca-ha
   895      896         1        0.137890     3.578157E+05     ; N-C, prebuilt c-n
   895      943         1        0.101290     3.373978E+05     ; N-H, prebuilt hn-n
   896      897         1        0.121830     5.336274E+05     ; C-O, prebuilt c-o
   896      898         1        0.149060     2.894491E+05     ; C-C, prebuilt c-ca
   898      899         1        0.139840     3.858485E+05     ; C-C, prebuilt ca-ca
   898      903         1        0.139840     3.858485E+05     ; C-C, prebuilt ca-ca
   899      900         1        0.139840     3.858485E+05     ; C-C, prebuilt ca-ca
   899      944         1        0.108600     2.893654E+05     ; C-H, prebuilt ca-ha
   900      901         1        0.139840     3.858485E+05     ; C-C, prebuilt ca-ca
   900      945         1        0.108600     2.893654E+05     ; C-H, prebuilt ca-ha
   901      902         1        0.139840     3.858485E+05     ; C-C, prebuilt ca-ca
   901      904         1        0.141210     3.214986E+05     ; C-N, prebuilt ca-n
   902      903         1        0.139840     3.858485E+05     ; C-C, prebuilt ca-ca
   902      946         1        0.108600     2.893654E+05     ; C-H, prebuilt ca-ha
   903      947         1        0.108600     2.893654E+05     ; C-H, prebuilt ca-ha
   904      905         1        0.137890     3.578157E+05     ; N-C, prebuilt c-n
   904      909         1        0.137890     3.578157E+05     ; N-C, prebuilt c-n
   905      906         1        0.121830     5.336274E+05     ; C-O, prebuilt c-o
   905      907         1        0.149060     2.894491E+05     ; C-C, prebuilt c-ca
   907      908         1        0.139840     3.858485E+05     ; C-C, prebuilt ca-ca
   907      914         1        0.139840     3.858485E+05     ; C-C, prebuilt ca-ca
   908      909         1        0.149060     2.894491E+05     ; C-C, prebuilt c-ca
   908      911         1        0.139840     3.858485E+05     ; C-C, prebuilt ca-ca
   909      910         1        0.121830     5.336274E+05     ; C-O, prebuilt c-o
   911      912         1        0.140580     3.767274E+05     ; C-C, prebuilt ca-cp
   911      948         1        0.108600     2.893654E+05     ; C-H, prebuilt ca-ha
   912      913         1        0.140580     3.767274E+05     ; C-C, prebuilt ca-cp
   912      954         1        0.148540     2.940515E+05     ; C-C, prebuilt cp-cp
   913      914         1        0.139840     3.858485E+05     ; C-C, prebuilt ca-ca
   913      949         1        0.108600     2.893654E+05     ; C-H, prebuilt ca-ha
   914      950         1        0.108600     2.893654E+05     ; C-H, prebuilt ca-ha
   915      951         1        0.109690     2.766461E+05     ; C-H, prebuilt c3-hc
   915      952         1        0.109690     2.766461E+05     ; C-H, prebuilt c3-hc
   915      953         1        0.109690     2.766461E+05     ; C-H, prebuilt c3-hc
   954      955         1        0.140580     3.767274E+05     ; C-C, prebuilt ca-cp
   954      959         1        0.140580     3.767274E+05     ; C-C, prebuilt ca-cp
   955      956         1        0.139840     3.858485E+05     ; C-C, prebuilt ca-ca
   955     1035         1        0.108600     2.893654E+05     ; C-H, prebuilt ca-ha
   956      957         1        0.139840     3.858485E+05     ; C-C, prebuilt ca-ca
   956     1036         1        0.108600     2.893654E+05     ; C-H, prebuilt ca-ha
   957      958         1        0.139840     3.858485E+05     ; C-C, prebuilt ca-ca
   957      963         1        0.149060     2.894491E+05     ; C-C, prebuilt c-ca
   958      959         1        0.139840     3.858485E+05     ; C-C, prebuilt ca-ca
   958      960         1        0.149060     2.894491E+05     ; C-C, prebuilt c-ca
   959     1037         1        0.108600     2.893654E+05     ; C-H, prebuilt ca-ha
   960      961         1        0.121830     5.336274E+05     ; C-O, prebuilt c-o
   960      962         1        0.137890     3.578157E+05     ; C-N, prebuilt c-n
   962      963         1        0.137890     3.578157E+05     ; N-C, prebuilt c-n
   962      965         1        0.141210     3.214986E+05     ; N-C, prebuilt ca-n
   963      964         1        0.121830     5.336274E+05     ; C-O, prebuilt c-o
   965      966         1        0.139840     3.858485E+05     ; C-C, prebuilt ca-ca
   965      970         1        0.139840     3.858485E+05     ; C-C, prebuilt ca-ca
   966      967         1        0.139840     3.858485E+05     ; C-C, prebuilt ca-ca
   966     1038         1        0.108600     2.893654E+05     ; C-H, prebuilt ca-ha
   967      968         1        0.139840     3.858485E+05     ; C-C, prebuilt ca-ca
   967     1039         1        0.108600     2.893654E+05     ; C-H, prebuilt ca-ha
   968      969         1        0.139840     3.858485E+05     ; C-C, prebuilt ca-ca
   968      971         1        0.141210     3.214986E+05     ; C-N, prebuilt ca-n
   969      970         1        0.139840     3.858485E+05     ; C-C, prebuilt ca-ca
   969     1040         1        0.108600     2.893654E+05     ; C-H, prebuilt ca-ha
   970     1041         1        0.108600     2.893654E+05     ; C-H, prebuilt ca-ha
   971      972         1        0.137890     3.578157E+05     ; N-C, prebuilt c-n
   971     1042         1        0.101290     3.373978E+05     ; N-H, prebuilt hn-n
   972      973         1        0.121830     5.336274E+05     ; C-O, prebuilt c-o
   972      974         1        0.149060     2.894491E+05     ; C-C, prebuilt c-ca
   974      975         1        0.139840     3.858485E+05     ; C-C, prebuilt ca-ca
   974      979         1        0.139840     3.858485E+05     ; C-C, prebuilt ca-ca
   975      976         1        0.139840     3.858485E+05     ; C-C, prebuilt ca-ca
   975     1043         1        0.108600     2.893654E+05     ; C-H, prebuilt ca-ha
   976      977         1        0.139840     3.858485E+05     ; C-C, prebuilt ca-ca
   976     1044         1        0.108600     2.893654E+05     ; C-H, prebuilt ca-ha
   977      978         1        0.139840     3.858485E+05     ; C-C, prebuilt ca-ca
   977     1034         1        0.151560     2.686128E+05     ; C-C, prebuilt c3-ca
   978      979         1        0.139840     3.858485E+05     ; C-C, prebuilt ca-ca
   978     1045         1        0.108600     2.893654E+05     ; C-H, prebuilt ca-ha
   979      980         1        0.141210     3.214986E+05     ; C-N, prebuilt ca-n
   980      981         1        0.137890     3.578157E+05     ; N-C, prebuilt c-n
   980      985         1        0.137890     3.578157E+05     ; N-C, prebuilt c-n
   981      982         1        0.121830     5.336274E+05     ; C-O, prebuilt c-o
   981      983         1        0.149060     2.894491E+05     ; C-C, prebuilt c-ca
   983      984         1        0.139840     3.858485E+05     ; C-C, prebuilt ca-ca
   983      990         1        0.139840     3.858485E+05     ; C-C, prebuilt ca-ca
   984      985         1        0.149060     2.894491E+05     ; C-C, prebuilt c-ca
   984      987         1        0.139840     3.858485E+05     ; C-C, prebuilt ca-ca
   985      986         1        0.121830     5.336274E+05     ; C-O, prebuilt c-o
   987      988         1        0.139840     3.858485E+05     ; C-C, prebuilt ca-ca
   987     1046         1        0.108600     2.893654E+05     ; C-H, prebuilt ca-ha
   988      989         1        0.139840     3.858485E+05     ; C-C, prebuilt ca-ca
   988      991         1        0.149060     2.894491E+05     ; C-C, prebuilt c-ca
   989      990         1        0.139840     3.858485E+05     ; C-C, prebuilt ca-ca
   989     1047         1        0.108600     2.893654E+05     ; C-H, prebuilt ca-ha
   990     1048         1        0.108600     2.893654E+05     ; C-H, prebuilt ca-ha
   991      992         1        0.121830     5.336274E+05     ; C-O, prebuilt c-o
   991      993         1        0.137890     3.578157E+05     ; C-N, prebuilt c-n
   993      994         1        0.141210     3.214986E+05     ; N-C, prebuilt ca-n
   993     1049         1        0.101290     3.373978E+05     ; N-H, prebuilt hn-n
   994      995         1        0.139840     3.858485E+05     ; C-C, prebuilt ca-ca
   994      999         1        0.139840     3.858485E+05     ; C-C, prebuilt ca-ca
   995      996         1        0.139840     3.858485E+05     ; C-C, prebuilt ca-ca
   995     1050         1        0.108600     2.893654E+05     ; C-H, prebuilt ca-ha
   996      997         1        0.139840     3.858485E+05     ; C-C, prebuilt ca-ca
   996     1051         1        0.108600     2.893654E+05     ; C-H, prebuilt ca-ha
   997      998         1        0.139840     3.858485E+05     ; C-C, prebuilt ca-ca
   997     1000         1        0.136960     3.151389E+05     ; C-O, prebuilt ca-os
   998      999         1        0.139840     3.858485E+05     ; C-C, prebuilt ca-ca
   998     1052         1        0.108600     2.893654E+05     ; C-H, prebuilt ca-ha
   999     1053         1        0.108600     2.893654E+05     ; C-H, prebuilt ca-ha
  1000     1001         1        0.136960     3.151389E+05     ; O-C, prebuilt ca-os
  1001     1002         1        0.139840     3.858485E+05     ; C-C, prebuilt ca-ca
  1001     1006         1        0.139840     3.858485E+05     ; C-C, prebuilt ca-ca
  1002     1003         1        0.139840     3.858485E+05     ; C-C, prebuilt ca-ca
  1002     1054         1        0.108600     2.893654E+05     ; C-H, prebuilt ca-ha
  1003     1004         1        0.139840     3.858485E+05     ; C-C, prebuilt ca-ca
  1003     1055         1        0.108600     2.893654E+05     ; C-H, prebuilt ca-ha
  1004     1005         1        0.139840     3.858485E+05     ; C-C, prebuilt ca-ca
  1004     1056         1        0.108600     2.893654E+05     ; C-H, prebuilt ca-ha
  1005     1006         1        0.139840     3.858485E+05     ; C-C, prebuilt ca-ca
  1005     1057         1        0.108600     2.893654E+05     ; C-H, prebuilt ca-ha
  1006     1007         1        0.136960     3.151389E+05     ; C-O, prebuilt ca-os
  1007     1008         1        0.136960     3.151389E+05     ; O-C, prebuilt ca-os
  1008     1009         1        0.139840     3.858485E+05     ; C-C, prebuilt ca-ca
  1008     1013         1        0.139840     3.858485E+05     ; C-C, prebuilt ca-ca
  1009     1010         1        0.139840     3.858485E+05     ; C-C, prebuilt ca-ca
  1009     1058         1        0.108600     2.893654E+05     ; C-H, prebuilt ca-ha
  1010     1011         1        0.139840     3.858485E+05     ; C-C, prebuilt ca-ca
  1010     1059         1        0.108600     2.893654E+05     ; C-H, prebuilt ca-ha
  1011     1012         1        0.139840     3.858485E+05     ; C-C, prebuilt ca-ca
  1011     1014         1        0.141210     3.214986E+05     ; C-N, prebuilt ca-n
  1012     1013         1        0.139840     3.858485E+05     ; C-C, prebuilt ca-ca
  1012     1060         1        0.108600     2.893654E+05     ; C-H, prebuilt ca-ha
  1013     1061         1        0.108600     2.893654E+05     ; C-H, prebuilt ca-ha
  1014     1015         1        0.137890     3.578157E+05     ; N-C, prebuilt c-n
  1014     1062         1        0.101290     3.373978E+05     ; N-H, prebuilt hn-n
  1015     1016         1        0.121830     5.336274E+05     ; C-O, prebuilt c-o
  1015     1017         1        0.149060     2.894491E+05     ; C-C, prebuilt c-ca
  1017     1018         1        0.139840     3.858485E+05     ; C-C, prebuilt ca-ca
  1017     1022         1        0.139840     3.858485E+05     ; C-C, prebuilt ca-ca
  1018     1019         1        0.139840     3.858485E+05     ; C-C, prebuilt ca-ca
  1018     1063         1        0.108600     2.893654E+05     ; C-H, prebuilt ca-ha
  1019     1020         1        0.139840     3.858485E+05     ; C-C, prebuilt ca-ca
  1019     1064         1        0.108600     2.893654E+05     ; C-H, prebuilt ca-ha
  1020     1021         1        0.139840     3.858485E+05     ; C-C, prebuilt ca-ca
  1020     1023         1        0.141210     3.214986E+05     ; C-N, prebuilt ca-n
  1021     1022         1        0.139840     3.858485E+05     ; C-C, prebuilt ca-ca
  1021     1065         1        0.108600     2.893654E+05     ; C-H, prebuilt ca-ha
  1022     1066         1        0.108600     2.893654E+05     ; C-H, prebuilt ca-ha
  1023     1024         1        0.137890     3.578157E+05     ; N-C, prebuilt c-n
  1023     1028         1        0.137890     3.578157E+05     ; N-C, prebuilt c-n
  1024     1025         1        0.121830     5.336274E+05     ; C-O, prebuilt c-o
  1024     1026         1        0.149060     2.894491E+05     ; C-C, prebuilt c-ca
  1026     1027         1        0.139840     3.858485E+05     ; C-C, prebuilt ca-ca
  1026     1033         1        0.139840     3.858485E+05     ; C-C, prebuilt ca-ca
  1027     1028         1        0.149060     2.894491E+05     ; C-C, prebuilt c-ca
  1027     1030         1        0.139840     3.858485E+05     ; C-C, prebuilt ca-ca
  1028     1029         1        0.121830     5.336274E+05     ; C-O, prebuilt c-o
  1030     1031         1        0.140580     3.767274E+05     ; C-C, prebuilt ca-cp
  1030     1067         1        0.108600     2.893654E+05     ; C-H, prebuilt ca-ha
  1031     1032         1        0.140580     3.767274E+05     ; C-C, prebuilt ca-cp
  1031     1073         1        0.148540     2.940515E+05     ; C-C, prebuilt cp-cp
  1032     1033         1        0.139840     3.858485E+05     ; C-C, prebuilt ca-ca
  1032     1068         1        0.108600     2.893654E+05     ; C-H, prebuilt ca-ha
  1033     1069         1        0.108600     2.893654E+05     ; C-H, prebuilt ca-ha
  1034     1070         1        0.109690     2.766461E+05     ; C-H, prebuilt c3-hc
  1034     1071         1        0.109690     2.766461E+05     ; C-H, prebuilt c3-hc
  1034     1072         1        0.109690     2.766461E+05     ; C-H, prebuilt c3-hc
  1073     1074         1        0.140580     3.767274E+05     ; C-C, prebuilt ca-cp
  1073     1078         1        0.140580     3.767274E+05     ; C-C, prebuilt ca-cp
  1074     1075         1        0.139840     3.858485E+05     ; C-C, prebuilt ca-ca
  1074     1154         1        0.108600     2.893654E+05     ; C-H, prebuilt ca-ha
  1075     1076         1        0.139840     3.858485E+05     ; C-C, prebuilt ca-ca
  1075     1155         1        0.108600     2.893654E+05     ; C-H, prebuilt ca-ha
  1076     1077         1        0.139840     3.858485E+05     ; C-C, prebuilt ca-ca
  1076     1082         1        0.149060     2.894491E+05     ; C-C, prebuilt c-ca
  1077     1078         1        0.139840     3.858485E+05     ; C-C, prebuilt ca-ca
  1077     1079         1        0.149060     2.894491E+05     ; C-C, prebuilt c-ca
  1078     1156         1        0.108600     2.893654E+05     ; C-H, prebuilt ca-ha
  1079     1080         1        0.121830     5.336274E+05     ; C-O, prebuilt c-o
  1079     1081         1        0.137890     3.578157E+05     ; C-N, prebuilt c-n
  1081     1082         1        0.137890     3.578157E+05     ; N-C, prebuilt c-n
  1081     1084         1        0.141210     3.214986E+05     ; N-C, prebuilt ca-n
  1082     1083         1        0.121830     5.336274E+05     ; C-O, prebuilt c-o
  1084     1085         1        0.139840     3.858485E+05     ; C-C, prebuilt ca-ca
  1084     1089         1        0.139840     3.858485E+05     ; C-C, prebuilt ca-ca
  1085     1086         1        0.139840     3.858485E+05     ; C-C, prebuilt ca-ca
  1085     1157         1        0.108600     2.893654E+05     ; C-H, prebuilt ca-ha
  1086     1087         1        0.139840     3.858485E+05     ; C-C, prebuilt ca-ca
  1086     1158         1        0.108600     2.893654E+05     ; C-H, prebuilt ca-ha
  1087     1088         1        0.139840     3.858485E+05     ; C-C, prebuilt ca-ca
  1087     1090         1        0.141210     3.214986E+05     ; C-N, prebuilt ca-n
  1088     1089         1        0.139840     3.858485E+05     ; C-C, prebuilt ca-ca
  1088     1159         1        0.108600     2.893654E+05     ; C-H, prebuilt ca-ha
  1089     1160         1        0.108600     2.893654E+05     ; C-H, prebuilt ca-ha
  1090     1091         1        0.137890     3.578157E+05     ; N-C, prebuilt c-n
  1090     1161         1        0.101290     3.373978E+05     ; N-H, prebuilt hn-n
  1091     1092         1        0.121830     5.336274E+05     ; C-O, prebuilt c-o
  1091     1093         1        0.149060     2.894491E+05     ; C-C, prebuilt c-ca
  1093     1094         1        0.139840     3.858485E+05     ; C-C, prebuilt ca-ca
  1093     1098         1        0.139840     3.858485E+05     ; C-C, prebuilt ca-ca
  1094     1095         1        0.139840     3.858485E+05     ; C-C, prebuilt ca-ca
  1094     1162         1        0.108600     2.893654E+05     ; C-H, prebuilt ca-ha
  1095     1096         1        0.139840     3.858485E+05     ; C-C, prebuilt ca-ca
  1095     1163         1        0.108600     2.893654E+05     ; C-H, prebuilt ca-ha
  1096     1097         1        0.139840     3.858485E+05     ; C-C, prebuilt ca-ca
  1096     1153         1        0.151560     2.686128E+05     ; C-C, prebuilt c3-ca
  1097     1098         1        0.139840     3.858485E+05     ; C-C, prebuilt ca-ca
  1097     1164         1        0.108600     2.893654E+05     ; C-H, prebuilt ca-ha
  1098     1099         1        0.141210     3.214986E+05     ; C-N, prebuilt ca-n
  1099     1100         1        0.137890     3.578157E+05     ; N-C, prebuilt c-n
  1099     1104         1        0.137890     3.578157E+05     ; N-C, prebuilt c-n
  1100     1101         1        0.121830     5.336274E+05     ; C-O, prebuilt c-o
  1100     1102         1        0.149060     2.894491E+05     ; C-C, prebuilt c-ca
  1102     1103         1        0.139840     3.858485E+05     ; C-C, prebuilt ca-ca
  1102     1109         1        0.139840     3.858485E+05     ; C-C, prebuilt ca-ca
  1103     1104         1        0.149060     2.894491E+05     ; C-C, prebuilt c-ca
  1103     1106         1        0.139840     3.858485E+05     ; C-C, prebuilt ca-ca
  1104     1105         1        0.121830     5.336274E+05     ; C-O, prebuilt c-o
  1106     1107         1        0.139840     3.858485E+05     ; C-C, prebuilt ca-ca
  1106     1165         1        0.108600     2.893654E+05     ; C-H, prebuilt ca-ha
  1107     1108         1        0.139840     3.858485E+05     ; C-C, prebuilt ca-ca
  1107     1110         1        0.149060     2.894491E+05     ; C-C, prebuilt c-ca
  1108     1109         1        0.139840     3.858485E+05     ; C-C, prebuilt ca-ca
  1108     1166         1        0.108600     2.893654E+05     ; C-H, prebuilt ca-ha
  1109     1167         1        0.108600     2.893654E+05     ; C-H, prebuilt ca-ha
  1110     1111         1        0.121830     5.336274E+05     ; C-O, prebuilt c-o
  1110     1112         1        0.137890     3.578157E+05     ; C-N, prebuilt c-n
  1112     1113         1        0.141210     3.214986E+05     ; N-C, prebuilt ca-n
  1112     1168         1        0.101290     3.373978E+05     ; N-H, prebuilt hn-n
  1113     1114         1        0.139840     3.858485E+05     ; C-C, prebuilt ca-ca
  1113     1118         1        0.139840     3.858485E+05     ; C-C, prebuilt ca-ca
  1114     1115         1        0.139840     3.858485E+05     ; C-C, prebuilt ca-ca
  1114     1169         1        0.108600     2.893654E+05     ; C-H, prebuilt ca-ha
  1115     1116         1        0.139840     3.858485E+05     ; C-C, prebuilt ca-ca
  1115     1170         1        0.108600     2.893654E+05     ; C-H, prebuilt ca-ha
  1116     1117         1        0.139840     3.858485E+05     ; C-C, prebuilt ca-ca
  1116     1119         1        0.136960     3.151389E+05     ; C-O, prebuilt ca-os
  1117     1118         1        0.139840     3.858485E+05     ; C-C, prebuilt ca-ca
  1117     1171         1        0.108600     2.893654E+05     ; C-H, prebuilt ca-ha
  1118     1172         1        0.108600     2.893654E+05     ; C-H, prebuilt ca-ha
  1119     1120         1        0.136960     3.151389E+05     ; O-C, prebuilt ca-os
  1120     1121         1        0.139840     3.858485E+05     ; C-C, prebuilt ca-ca
  1120     1125         1        0.139840     3.858485E+05     ; C-C, prebuilt ca-ca
  1121     1122         1        0.139840     3.858485E+05     ; C-C, prebuilt ca-ca
  1121     1173         1        0.108600     2.893654E+05     ; C-H, prebuilt ca-ha
  1122     1123         1        0.139840     3.858485E+05     ; C-C, prebuilt ca-ca
  1122     1174         1        0.108600     2.893654E+05     ; C-H, prebuilt ca-ha
  1123     1124         1        0.139840     3.858485E+05     ; C-C, prebuilt ca-ca
  1123     1175         1        0.108600     2.893654E+05     ; C-H, prebuilt ca-ha
  1124     1125         1        0.139840     3.858485E+05     ; C-C, prebuilt ca-ca
  1124     1176         1        0.108600     2.893654E+05     ; C-H, prebuilt ca-ha
  1125     1126         1        0.136960     3.151389E+05     ; C-O, prebuilt ca-os
  1126     1127         1        0.136960     3.151389E+05     ; O-C, prebuilt ca-os
  1127     1128         1        0.139840     3.858485E+05     ; C-C, prebuilt ca-ca
  1127     1132         1        0.139840     3.858485E+05     ; C-C, prebuilt ca-ca
  1128     1129         1        0.139840     3.858485E+05     ; C-C, prebuilt ca-ca
  1128     1177         1        0.108600     2.893654E+05     ; C-H, prebuilt ca-ha
  1129     1130         1        0.139840     3.858485E+05     ; C-C, prebuilt ca-ca
  1129     1178         1        0.108600     2.893654E+05     ; C-H, prebuilt ca-ha
  1130     1131         1        0.139840     3.858485E+05     ; C-C, prebuilt ca-ca
  1130     1133         1        0.141210     3.214986E+05     ; C-N, prebuilt ca-n
  1131     1132         1        0.139840     3.858485E+05     ; C-C, prebuilt ca-ca
  1131     1179         1        0.108600     2.893654E+05     ; C-H, prebuilt ca-ha
  1132     1180         1        0.108600     2.893654E+05     ; C-H, prebuilt ca-ha
  1133     1134         1        0.137890     3.578157E+05     ; N-C, prebuilt c-n
  1133     1181         1        0.101290     3.373978E+05     ; N-H, prebuilt hn-n
  1134     1135         1        0.121830     5.336274E+05     ; C-O, prebuilt c-o
  1134     1136         1        0.149060     2.894491E+05     ; C-C, prebuilt c-ca
  1136     1137         1        0.139840     3.858485E+05     ; C-C, prebuilt ca-ca
  1136     1141         1        0.139840     3.858485E+05     ; C-C, prebuilt ca-ca
  1137     1138         1        0.139840     3.858485E+05     ; C-C, prebuilt ca-ca
  1137     1182         1        0.108600     2.893654E+05     ; C-H, prebuilt ca-ha
  1138     1139         1        0.139840     3.858485E+05     ; C-C, prebuilt ca-ca
  1138     1183         1        0.108600     2.893654E+05     ; C-H, prebuilt ca-ha
  1139     1140         1        0.139840     3.858485E+05     ; C-C, prebuilt ca-ca
  1139     1142         1        0.141210     3.214986E+05     ; C-N, prebuilt ca-n
  1140     1141         1        0.139840     3.858485E+05     ; C-C, prebuilt ca-ca
  1140     1184         1        0.108600     2.893654E+05     ; C-H, prebuilt ca-ha
  1141     1185         1        0.108600     2.893654E+05     ; C-H, prebuilt ca-ha
  1142     1143         1        0.137890     3.578157E+05     ; N-C, prebuilt c-n
  1142     1147         1        0.137890     3.578157E+05     ; N-C, prebuilt c-n
  1143     1144         1        0.121830     5.336274E+05     ; C-O, prebuilt c-o
  1143     1145         1        0.149060     2.894491E+05     ; C-C, prebuilt c-ca
  1145     1146         1        0.139840     3.858485E+05     ; C-C, prebuilt ca-ca
  1145     1152         1        0.139840     3.858485E+05     ; C-C, prebuilt ca-ca
  1146     1147         1        0.149060     2.894491E+05     ; C-C, prebuilt c-ca
  1146     1149         1        0.139840     3.858485E+05     ; C-C, prebuilt ca-ca
  1147     1148         1        0.121830     5.336274E+05     ; C-O, prebuilt c-o
  1149     1150         1        0.140580     3.767274E+05     ; C-C, prebuilt ca-cp
  1149     1186         1        0.108600     2.893654E+05     ; C-H, prebuilt ca-ha
  1150     1151         1        0.140580     3.767274E+05     ; C-C, prebuilt ca-cp
  1150     1192         1        0.148540     2.940515E+05     ; C-C, prebuilt cp-cp
  1151     1152         1        0.139840     3.858485E+05     ; C-C, prebuilt ca-ca
  1151     1187         1        0.108600     2.893654E+05     ; C-H, prebuilt ca-ha
  1152     1188         1        0.108600     2.893654E+05     ; C-H, prebuilt ca-ha
  1153     1189         1        0.109690     2.766461E+05     ; C-H, prebuilt c3-hc
  1153     1190         1        0.109690     2.766461E+05     ; C-H, prebuilt c3-hc
  1153     1191         1        0.109690     2.766461E+05     ; C-H, prebuilt c3-hc
  1192     1193         1        0.140580     3.767274E+05     ; C-C, prebuilt ca-cp
  1192     1197         1        0.140580     3.767274E+05     ; C-C, prebuilt ca-cp
  1193     1194         1        0.139840     3.858485E+05     ; C-C, prebuilt ca-ca
  1193     1273         1        0.108600     2.893654E+05     ; C-H, prebuilt ca-ha
  1194     1195         1        0.139840     3.858485E+05     ; C-C, prebuilt ca-ca
  1194     1274         1        0.108600     2.893654E+05     ; C-H, prebuilt ca-ha
  1195     1196         1        0.139840     3.858485E+05     ; C-C, prebuilt ca-ca
  1195     1201         1        0.149060     2.894491E+05     ; C-C, prebuilt c-ca
  1196     1197         1        0.139840     3.858485E+05     ; C-C, prebuilt ca-ca
  1196     1198         1        0.149060     2.894491E+05     ; C-C, prebuilt c-ca
  1197     1275         1        0.108600     2.893654E+05     ; C-H, prebuilt ca-ha
  1198     1199         1        0.121830     5.336274E+05     ; C-O, prebuilt c-o
  1198     1200         1        0.137890     3.578157E+05     ; C-N, prebuilt c-n
  1200     1201         1        0.137890     3.578157E+05     ; N-C, prebuilt c-n
  1200     1203         1        0.141210     3.214986E+05     ; N-C, prebuilt ca-n
  1201     1202         1        0.121830     5.336274E+05     ; C-O, prebuilt c-o
  1203     1204         1        0.139840     3.858485E+05     ; C-C, prebuilt ca-ca
  1203     1208         1        0.139840     3.858485E+05     ; C-C, prebuilt ca-ca
  1204     1205         1        0.139840     3.858485E+05     ; C-C, prebuilt ca-ca
  1204     1276         1        0.108600     2.893654E+05     ; C-H, prebuilt ca-ha
  1205     1206         1        0.139840     3.858485E+05     ; C-C, prebuilt ca-ca
  1205     1277         1        0.108600     2.893654E+05     ; C-H, prebuilt ca-ha
  1206     1207         1        0.139840     3.858485E+05     ; C-C, prebuilt ca-ca
  1206     1209         1        0.141210     3.214986E+05     ; C-N, prebuilt ca-n
  1207     1208         1        0.139840     3.858485E+05     ; C-C, prebuilt ca-ca
  1207     1278         1        0.108600     2.893654E+05     ; C-H, prebuilt ca-ha
  1208     1279         1        0.108600     2.893654E+05     ; C-H, prebuilt ca-ha
  1209     1210         1        0.137890     3.578157E+05     ; N-C, prebuilt c-n
  1209     1280         1        0.101290     3.373978E+05     ; N-H, prebuilt hn-n
  1210     1211         1        0.121830     5.336274E+05     ; C-O, prebuilt c-o
  1210     1212         1        0.149060     2.894491E+05     ; C-C, prebuilt c-ca
  1212     1213         1        0.139840     3.858485E+05     ; C-C, prebuilt ca-ca
  1212     1217         1        0.139840     3.858485E+05     ; C-C, prebuilt ca-ca
  1213     1214         1        0.139840     3.858485E+05     ; C-C, prebuilt ca-ca
  1213     1281         1        0.108600     2.893654E+05     ; C-H, prebuilt ca-ha
  1214     1215         1        0.139840     3.858485E+05     ; C-C, prebuilt ca-ca
  1214     1282         1        0.108600     2.893654E+05     ; C-H, prebuilt ca-ha
  1215     1216         1        0.139840     3.858485E+05     ; C-C, prebuilt ca-ca
  1215     1272         1        0.151560     2.686128E+05     ; C-C, prebuilt c3-ca
  1216     1217         1        0.139840     3.858485E+05     ; C-C, prebuilt ca-ca
  1216     1283         1        0.108600     2.893654E+05     ; C-H, prebuilt ca-ha
  1217     1218         1        0.141210     3.214986E+05     ; C-N, prebuilt ca-n
  1218     1219         1        0.137890     3.578157E+05     ; N-C, prebuilt c-n
  1218     1223         1        0.137890     3.578157E+05     ; N-C, prebuilt c-n
  1219     1220         1        0.121830     5.336274E+05     ; C-O, prebuilt c-o
  1219     1221         1        0.149060     2.894491E+05     ; C-C, prebuilt c-ca
  1221     1222         1        0.139840     3.858485E+05     ; C-C, prebuilt ca-ca
  1221     1228         1        0.139840     3.858485E+05     ; C-C, prebuilt ca-ca
  1222     1223         1        0.149060     2.894491E+05     ; C-C, prebuilt c-ca
  1222     1225         1        0.139840     3.858485E+05     ; C-C, prebuilt ca-ca
  1223     1224         1        0.121830     5.336274E+05     ; C-O, prebuilt c-o
  1225     1226         1        0.139840     3.858485E+05     ; C-C, prebuilt ca-ca
  1225     1284         1        0.108600     2.893654E+05     ; C-H, prebuilt ca-ha
  1226     1227         1        0.139840     3.858485E+05     ; C-C, prebuilt ca-ca
  1226     1229         1        0.149060     2.894491E+05     ; C-C, prebuilt c-ca
  1227     1228         1        0.139840     3.858485E+05     ; C-C, prebuilt ca-ca
  1227     1285         1        0.108600     2.893654E+05     ; C-H, prebuilt ca-ha
  1228     1286         1        0.108600     2.893654E+05     ; C-H, prebuilt ca-ha
  1229     1230         1        0.121830     5.336274E+05     ; C-O, prebuilt c-o
  1229     1231         1        0.137890     3.578157E+05     ; C-N, prebuilt c-n
  1231     1232         1        0.141210     3.214986E+05     ; N-C, prebuilt ca-n
  1231     1287         1        0.101290     3.373978E+05     ; N-H, prebuilt hn-n
  1232     1233         1        0.139840     3.858485E+05     ; C-C, prebuilt ca-ca
  1232     1237         1        0.139840     3.858485E+05     ; C-C, prebuilt ca-ca
  1233     1234         1        0.139840     3.858485E+05     ; C-C, prebuilt ca-ca
  1233     1288         1        0.108600     2.893654E+05     ; C-H, prebuilt ca-ha
  1234     1235         1        0.139840     3.858485E+05     ; C-C, prebuilt ca-ca
  1234     1289         1        0.108600     2.893654E+05     ; C-H, prebuilt ca-ha
  1235     1236         1        0.139840     3.858485E+05     ; C-C, prebuilt ca-ca
  1235     1238         1        0.136960     3.151389E+05     ; C-O, prebuilt ca-os
  1236     1237         1        0.139840     3.858485E+05     ; C-C, prebuilt ca-ca
  1236     1290         1        0.108600     2.893654E+05     ; C-H, prebuilt ca-ha
  1237     1291         1        0.108600     2.893654E+05     ; C-H, prebuilt ca-ha
  1238     1239         1        0.136960     3.151389E+05     ; O-C, prebuilt ca-os
  1239     1240         1        0.139840     3.858485E+05     ; C-C, prebuilt ca-ca
  1239     1244         1        0.139840     3.858485E+05     ; C-C, prebuilt ca-ca
  1240     1241         1        0.139840     3.858485E+05     ; C-C, prebuilt ca-ca
  1240     1292         1        0.108600     2.893654E+05     ; C-H, prebuilt ca-ha
  1241     1242         1        0.139840     3.858485E+05     ; C-C, prebuilt ca-ca
  1241     1293         1        0.108600     2.893654E+05     ; C-H, prebuilt ca-ha
  1242     1243         1        0.139840     3.858485E+05     ; C-C, prebuilt ca-ca
  1242     1294         1        0.108600     2.893654E+05     ; C-H, prebuilt ca-ha
  1243     1244         1        0.139840     3.858485E+05     ; C-C, prebuilt ca-ca
  1243     1295         1        0.108600     2.893654E+05     ; C-H, prebuilt ca-ha
  1244     1245         1        0.136960     3.151389E+05     ; C-O, prebuilt ca-os
  1245     1246         1        0.136960     3.151389E+05     ; O-C, prebuilt ca-os
  1246     1247         1        0.139840     3.858485E+05     ; C-C, prebuilt ca-ca
  1246     1251         1        0.139840     3.858485E+05     ; C-C, prebuilt ca-ca
  1247     1248         1        0.139840     3.858485E+05     ; C-C, prebuilt ca-ca
  1247     1296         1        0.108600     2.893654E+05     ; C-H, prebuilt ca-ha
  1248     1249         1        0.139840     3.858485E+05     ; C-C, prebuilt ca-ca
  1248     1297         1        0.108600     2.893654E+05     ; C-H, prebuilt ca-ha
  1249     1250         1        0.139840     3.858485E+05     ; C-C, prebuilt ca-ca
  1249     1252         1        0.141210     3.214986E+05     ; C-N, prebuilt ca-n
  1250     1251         1        0.139840     3.858485E+05     ; C-C, prebuilt ca-ca
  1250     1298         1        0.108600     2.893654E+05     ; C-H, prebuilt ca-ha
  1251     1299         1        0.108600     2.893654E+05     ; C-H, prebuilt ca-ha
  1252     1253         1        0.137890     3.578157E+05     ; N-C, prebuilt c-n
  1252     1300         1        0.101290     3.373978E+05     ; N-H, prebuilt hn-n
  1253     1254         1        0.121830     5.336274E+05     ; C-O, prebuilt c-o
  1253     1255         1        0.149060     2.894491E+05     ; C-C, prebuilt c-ca
  1255     1256         1        0.139840     3.858485E+05     ; C-C, prebuilt ca-ca
  1255     1260         1        0.139840     3.858485E+05     ; C-C, prebuilt ca-ca
  1256     1257         1        0.139840     3.858485E+05     ; C-C, prebuilt ca-ca
  1256     1301         1        0.108600     2.893654E+05     ; C-H, prebuilt ca-ha
  1257     1258         1        0.139840     3.858485E+05     ; C-C, prebuilt ca-ca
  1257     1302         1        0.108600     2.893654E+05     ; C-H, prebuilt ca-ha
  1258     1259         1        0.139840     3.858485E+05     ; C-C, prebuilt ca-ca
  1258     1261         1        0.141210     3.214986E+05     ; C-N, prebuilt ca-n
  1259     1260         1        0.139840     3.858485E+05     ; C-C, prebuilt ca-ca
  1259     1303         1        0.108600     2.893654E+05     ; C-H, prebuilt ca-ha
  1260     1304         1        0.108600     2.893654E+05     ; C-H, prebuilt ca-ha
  1261     1262         1        0.137890     3.578157E+05     ; N-C, prebuilt c-n
  1261     1266         1        0.137890     3.578157E+05     ; N-C, prebuilt c-n
  1262     1263         1        0.121830     5.336274E+05     ; C-O, prebuilt c-o
  1262     1264         1        0.149060     2.894491E+05     ; C-C, prebuilt c-ca
  1264     1265         1        0.139840     3.858485E+05     ; C-C, prebuilt ca-ca
  1264     1271         1        0.139840     3.858485E+05     ; C-C, prebuilt ca-ca
  1265     1266         1        0.149060     2.894491E+05     ; C-C, prebuilt c-ca
  1265     1268         1        0.139840     3.858485E+05     ; C-C, prebuilt ca-ca
  1266     1267         1        0.121830     5.336274E+05     ; C-O, prebuilt c-o
  1268     1269         1        0.140580     3.767274E+05     ; C-C, prebuilt ca-cp
  1268     1305         1        0.108600     2.893654E+05     ; C-H, prebuilt ca-ha
  1269     1270         1        0.140580     3.767274E+05     ; C-C, prebuilt ca-cp
  1269     1311         1        0.148540     2.940515E+05     ; C-C, prebuilt cp-cp
  1270     1271         1        0.139840     3.858485E+05     ; C-C, prebuilt ca-ca
  1270     1306         1        0.108600     2.893654E+05     ; C-H, prebuilt ca-ha
  1271     1307         1        0.108600     2.893654E+05     ; C-H, prebuilt ca-ha
  1272     1308         1        0.109690     2.766461E+05     ; C-H, prebuilt c3-hc
  1272     1309         1        0.109690     2.766461E+05     ; C-H, prebuilt c3-hc
  1272     1310         1        0.109690     2.766461E+05     ; C-H, prebuilt c3-hc
  1311     1312         1        0.140580     3.767274E+05     ; C-C, prebuilt ca-cp
  1311     1316         1        0.140580     3.767274E+05     ; C-C, prebuilt ca-cp
  1312     1313         1        0.139840     3.858485E+05     ; C-C, prebuilt ca-ca
  1312     1392         1        0.108600     2.893654E+05     ; C-H, prebuilt ca-ha
  1313     1314         1        0.139840     3.858485E+05     ; C-C, prebuilt ca-ca
  1313     1393         1        0.108600     2.893654E+05     ; C-H, prebuilt ca-ha
  1314     1315         1        0.139840     3.858485E+05     ; C-C, prebuilt ca-ca
  1314     1320         1        0.149060     2.894491E+05     ; C-C, prebuilt c-ca
  1315     1316         1        0.139840     3.858485E+05     ; C-C, prebuilt ca-ca
  1315     1317         1        0.149060     2.894491E+05     ; C-C, prebuilt c-ca
  1316     1394         1        0.108600     2.893654E+05     ; C-H, prebuilt ca-ha
  1317     1318         1        0.121830     5.336274E+05     ; C-O, prebuilt c-o
  1317     1319         1        0.137890     3.578157E+05     ; C-N, prebuilt c-n
  1319     1320         1        0.137890     3.578157E+05     ; N-C, prebuilt c-n
  1319     1322         1        0.141210     3.214986E+05     ; N-C, prebuilt ca-n
  1320     1321         1        0.121830     5.336274E+05     ; C-O, prebuilt c-o
  1322     1323         1        0.139840     3.858485E+05     ; C-C, prebuilt ca-ca
  1322     1327         1        0.139840     3.858485E+05     ; C-C, prebuilt ca-ca
  1323     1324         1        0.139840     3.858485E+05     ; C-C, prebuilt ca-ca
  1323     1395         1        0.108600     2.893654E+05     ; C-H, prebuilt ca-ha
  1324     1325         1        0.139840     3.858485E+05     ; C-C, prebuilt ca-ca
  1324     1396         1        0.108600     2.893654E+05     ; C-H, prebuilt ca-ha
  1325     1326         1        0.139840     3.858485E+05     ; C-C, prebuilt ca-ca
  1325     1328         1        0.141210     3.214986E+05     ; C-N, prebuilt ca-n
  1326     1327         1        0.139840     3.858485E+05     ; C-C, prebuilt ca-ca
  1326     1397         1        0.108600     2.893654E+05     ; C-H, prebuilt ca-ha
  1327     1398         1        0.108600     2.893654E+05     ; C-H, prebuilt ca-ha
  1328     1329         1        0.137890     3.578157E+05     ; N-C, prebuilt c-n
  1328     1399         1        0.101290     3.373978E+05     ; N-H, prebuilt hn-n
  1329     1330         1        0.121830     5.336274E+05     ; C-O, prebuilt c-o
  1329     1331         1        0.149060     2.894491E+05     ; C-C, prebuilt c-ca
  1331     1332         1        0.139840     3.858485E+05     ; C-C, prebuilt ca-ca
  1331     1336         1        0.139840     3.858485E+05     ; C-C, prebuilt ca-ca
  1332     1333         1        0.139840     3.858485E+05     ; C-C, prebuilt ca-ca
  1332     1400         1        0.108600     2.893654E+05     ; C-H, prebuilt ca-ha
  1333     1334         1        0.139840     3.858485E+05     ; C-C, prebuilt ca-ca
  1333     1401         1        0.108600     2.893654E+05     ; C-H, prebuilt ca-ha
  1334     1335         1        0.139840     3.858485E+05     ; C-C, prebuilt ca-ca
  1334     1391         1        0.151560     2.686128E+05     ; C-C, prebuilt c3-ca
  1335     1336         1        0.139840     3.858485E+05     ; C-C, prebuilt ca-ca
  1335     1402         1        0.108600     2.893654E+05     ; C-H, prebuilt ca-ha
  1336     1337         1        0.141210     3.214986E+05     ; C-N, prebuilt ca-n
  1337     1338         1        0.137890     3.578157E+05     ; N-C, prebuilt c-n
  1337     1342         1        0.137890     3.578157E+05     ; N-C, prebuilt c-n
  1338     1339         1        0.121830     5.336274E+05     ; C-O, prebuilt c-o
  1338     1340         1        0.149060     2.894491E+05     ; C-C, prebuilt c-ca
  1340     1341         1        0.139840     3.858485E+05     ; C-C, prebuilt ca-ca
  1340     1347         1        0.139840     3.858485E+05     ; C-C, prebuilt ca-ca
  1341     1342         1        0.149060     2.894491E+05     ; C-C, prebuilt c-ca
  1341     1344         1        0.139840     3.858485E+05     ; C-C, prebuilt ca-ca
  1342     1343         1        0.121830     5.336274E+05     ; C-O, prebuilt c-o
  1344     1345         1        0.139840     3.858485E+05     ; C-C, prebuilt ca-ca
  1344     1403         1        0.108600     2.893654E+05     ; C-H, prebuilt ca-ha
  1345     1346         1        0.139840     3.858485E+05     ; C-C, prebuilt ca-ca
  1345     1348         1        0.149060     2.894491E+05     ; C-C, prebuilt c-ca
  1346     1347         1        0.139840     3.858485E+05     ; C-C, prebuilt ca-ca
  1346     1404         1        0.108600     2.893654E+05     ; C-H, prebuilt ca-ha
  1347     1405         1        0.108600     2.893654E+05     ; C-H, prebuilt ca-ha
  1348     1349         1        0.121830     5.336274E+05     ; C-O, prebuilt c-o
  1348     1350         1        0.137890     3.578157E+05     ; C-N, prebuilt c-n
  1350     1351         1        0.141210     3.214986E+05     ; N-C, prebuilt ca-n
  1350     1406         1        0.101290     3.373978E+05     ; N-H, prebuilt hn-n
  1351     1352         1        0.139840     3.858485E+05     ; C-C, prebuilt ca-ca
  1351     1356         1        0.139840     3.858485E+05     ; C-C, prebuilt ca-ca
  1352     1353         1        0.139840     3.858485E+05     ; C-C, prebuilt ca-ca
  1352     1407         1        0.108600     2.893654E+05     ; C-H, prebuilt ca-ha
  1353     1354         1        0.139840     3.858485E+05     ; C-C, prebuilt ca-ca
  1353     1408         1        0.108600     2.893654E+05     ; C-H, prebuilt ca-ha
  1354     1355         1        0.139840     3.858485E+05     ; C-C, prebuilt ca-ca
  1354     1357         1        0.136960     3.151389E+05     ; C-O, prebuilt ca-os
  1355     1356         1        0.139840     3.858485E+05     ; C-C, prebuilt ca-ca
  1355     1409         1        0.108600     2.893654E+05     ; C-H, prebuilt ca-ha
  1356     1410         1        0.108600     2.893654E+05     ; C-H, prebuilt ca-ha
  1357     1358         1        0.136960     3.151389E+05     ; O-C, prebuilt ca-os
  1358     1359         1        0.139840     3.858485E+05     ; C-C, prebuilt ca-ca
  1358     1363         1        0.139840     3.858485E+05     ; C-C, prebuilt ca-ca
  1359     1360         1        0.139840     3.858485E+05     ; C-C, prebuilt ca-ca
  1359     1411         1        0.108600     2.893654E+05     ; C-H, prebuilt ca-ha
  1360     1361         1        0.139840     3.858485E+05     ; C-C, prebuilt ca-ca
  1360     1412         1        0.108600     2.893654E+05     ; C-H, prebuilt ca-ha
  1361     1362         1        0.139840     3.858485E+05     ; C-C, prebuilt ca-ca
  1361     1413         1        0.108600     2.893654E+05     ; C-H, prebuilt ca-ha
  1362     1363         1        0.139840     3.858485E+05     ; C-C, prebuilt ca-ca
  1362     1414         1        0.108600     2.893654E+05     ; C-H, prebuilt ca-ha
  1363     1364         1        0.136960     3.151389E+05     ; C-O, prebuilt ca-os
  1364     1365         1        0.136960     3.151389E+05     ; O-C, prebuilt ca-os
  1365     1366         1        0.139840     3.858485E+05     ; C-C, prebuilt ca-ca
  1365     1370         1        0.139840     3.858485E+05     ; C-C, prebuilt ca-ca
  1366     1367         1        0.139840     3.858485E+05     ; C-C, prebuilt ca-ca
  1366     1415         1        0.108600     2.893654E+05     ; C-H, prebuilt ca-ha
  1367     1368         1        0.139840     3.858485E+05     ; C-C, prebuilt ca-ca
  1367     1416         1        0.108600     2.893654E+05     ; C-H, prebuilt ca-ha
  1368     1369         1        0.139840     3.858485E+05     ; C-C, prebuilt ca-ca
  1368     1371         1        0.141210     3.214986E+05     ; C-N, prebuilt ca-n
  1369     1370         1        0.139840     3.858485E+05     ; C-C, prebuilt ca-ca
  1369     1417         1        0.108600     2.893654E+05     ; C-H, prebuilt ca-ha
  1370     1418         1        0.108600     2.893654E+05     ; C-H, prebuilt ca-ha
  1371     1372         1        0.137890     3.578157E+05     ; N-C, prebuilt c-n
  1371     1419         1        0.101290     3.373978E+05     ; N-H, prebuilt hn-n
  1372     1373         1        0.121830     5.336274E+05     ; C-O, prebuilt c-o
  1372     1374         1        0.149060     2.894491E+05     ; C-C, prebuilt c-ca
  1374     1375         1        0.139840     3.858485E+05     ; C-C, prebuilt ca-ca
  1374     1379         1        0.139840     3.858485E+05     ; C-C, prebuilt ca-ca
  1375     1376         1        0.139840     3.858485E+05     ; C-C, prebuilt ca-ca
  1375     1420         1        0.108600     2.893654E+05     ; C-H, prebuilt ca-ha
  1376     1377         1        0.139840     3.858485E+05     ; C-C, prebuilt ca-ca
  1376     1421         1        0.108600     2.893654E+05     ; C-H, prebuilt ca-ha
  1377     1378         1        0.139840     3.858485E+05     ; C-C, prebuilt ca-ca
  1377     1380         1        0.141210     3.214986E+05     ; C-N, prebuilt ca-n
  1378     1379         1        0.139840     3.858485E+05     ; C-C, prebuilt ca-ca
  1378     1422         1        0.108600     2.893654E+05     ; C-H, prebuilt ca-ha
  1379     1423         1        0.108600     2.893654E+05     ; C-H, prebuilt ca-ha
  1380     1381         1        0.137890     3.578157E+05     ; N-C, prebuilt c-n
  1380     1385         1        0.137890     3.578157E+05     ; N-C, prebuilt c-n
  1381     1382         1        0.121830     5.336274E+05     ; C-O, prebuilt c-o
  1381     1383         1        0.149060     2.894491E+05     ; C-C, prebuilt c-ca
  1383     1384         1        0.139840     3.858485E+05     ; C-C, prebuilt ca-ca
  1383     1390         1        0.139840     3.858485E+05     ; C-C, prebuilt ca-ca
  1384     1385         1        0.149060     2.894491E+05     ; C-C, prebuilt c-ca
  1384     1387         1        0.139840     3.858485E+05     ; C-C, prebuilt ca-ca
  1385     1386         1        0.121830     5.336274E+05     ; C-O, prebuilt c-o
  1387     1388         1        0.140580     3.767274E+05     ; C-C, prebuilt ca-cp
  1387     1424         1        0.108600     2.893654E+05     ; C-H, prebuilt ca-ha
  1388     1389         1        0.140580     3.767274E+05     ; C-C, prebuilt ca-cp
  1388     1430         1        0.148540     2.940515E+05     ; C-C, prebuilt cp-cp
  1389     1390         1        0.139840     3.858485E+05     ; C-C, prebuilt ca-ca
  1389     1425         1        0.108600     2.893654E+05     ; C-H, prebuilt ca-ha
  1390     1426         1        0.108600     2.893654E+05     ; C-H, prebuilt ca-ha
  1391     1427         1        0.109690     2.766461E+05     ; C-H, prebuilt c3-hc
  1391     1428         1        0.109690     2.766461E+05     ; C-H, prebuilt c3-hc
  1391     1429         1        0.109690     2.766461E+05     ; C-H, prebuilt c3-hc
  1430     1431         1        0.140580     3.767274E+05     ; C-C, prebuilt ca-cp
  1430     1435         1        0.140580     3.767274E+05     ; C-C, prebuilt ca-cp
  1431     1432         1        0.139840     3.858485E+05     ; C-C, prebuilt ca-ca
  1431     1511         1        0.108600     2.893654E+05     ; C-H, prebuilt ca-ha
  1432     1433         1        0.139840     3.858485E+05     ; C-C, prebuilt ca-ca
  1432     1512         1        0.108600     2.893654E+05     ; C-H, prebuilt ca-ha
  1433     1434         1        0.139840     3.858485E+05     ; C-C, prebuilt ca-ca
  1433     1439         1        0.149060     2.894491E+05     ; C-C, prebuilt c-ca
  1434     1435         1        0.139840     3.858485E+05     ; C-C, prebuilt ca-ca
  1434     1436         1        0.149060     2.894491E+05     ; C-C, prebuilt c-ca
  1435     1513         1        0.108600     2.893654E+05     ; C-H, prebuilt ca-ha
  1436     1437         1        0.121830     5.336274E+05     ; C-O, prebuilt c-o
  1436     1438         1        0.137890     3.578157E+05     ; C-N, prebuilt c-n
  1438     1439         1        0.137890     3.578157E+05     ; N-C, prebuilt c-n
  1438     1441         1        0.141210     3.214986E+05     ; N-C, prebuilt ca-n
  1439     1440         1        0.121830     5.336274E+05     ; C-O, prebuilt c-o
  1441     1442         1        0.139840     3.858485E+05     ; C-C, prebuilt ca-ca
  1441     1446         1        0.139840     3.858485E+05     ; C-C, prebuilt ca-ca
  1442     1443         1        0.139840     3.858485E+05     ; C-C, prebuilt ca-ca
  1442     1514         1        0.108600     2.893654E+05     ; C-H, prebuilt ca-ha
  1443     1444         1        0.139840     3.858485E+05     ; C-C, prebuilt ca-ca
  1443     1515         1        0.108600     2.893654E+05     ; C-H, prebuilt ca-ha
  1444     1445         1        0.139840     3.858485E+05     ; C-C, prebuilt ca-ca
  1444     1447         1        0.141210     3.214986E+05     ; C-N, prebuilt ca-n
  1445     1446         1        0.139840     3.858485E+05     ; C-C, prebuilt ca-ca
  1445     1516         1        0.108600     2.893654E+05     ; C-H, prebuilt ca-ha
  1446     1517         1        0.108600     2.893654E+05     ; C-H, prebuilt ca-ha
  1447     1448         1        0.137890     3.578157E+05     ; N-C, prebuilt c-n
  1447     1518         1        0.101290     3.373978E+05     ; N-H, prebuilt hn-n
  1448     1449         1        0.121830     5.336274E+05     ; C-O, prebuilt c-o
  1448     1450         1        0.149060     2.894491E+05     ; C-C, prebuilt c-ca
  1450     1451         1        0.139840     3.858485E+05     ; C-C, prebuilt ca-ca
  1450     1455         1        0.139840     3.858485E+05     ; C-C, prebuilt ca-ca
  1451     1452         1        0.139840     3.858485E+05     ; C-C, prebuilt ca-ca
  1451     1519         1        0.108600     2.893654E+05     ; C-H, prebuilt ca-ha
  1452     1453         1        0.139840     3.858485E+05     ; C-C, prebuilt ca-ca
  1452     1520         1        0.108600     2.893654E+05     ; C-H, prebuilt ca-ha
  1453     1454         1        0.139840     3.858485E+05     ; C-C, prebuilt ca-ca
  1453     1510         1        0.151560     2.686128E+05     ; C-C, prebuilt c3-ca
  1454     1455         1        0.139840     3.858485E+05     ; C-C, prebuilt ca-ca
  1454     1521         1        0.108600     2.893654E+05     ; C-H, prebuilt ca-ha
  1455     1456         1        0.141210     3.214986E+05     ; C-N, prebuilt ca-n
  1456     1457         1        0.137890     3.578157E+05     ; N-C, prebuilt c-n
  1456     1461         1        0.137890     3.578157E+05     ; N-C, prebuilt c-n
  1457     1458         1        0.121830     5.336274E+05     ; C-O, prebuilt c-o
  1457     1459         1        0.149060     2.894491E+05     ; C-C, prebuilt c-ca
  1459     1460         1        0.139840     3.858485E+05     ; C-C, prebuilt ca-ca
  1459     1466         1        0.139840     3.858485E+05     ; C-C, prebuilt ca-ca
  1460     1461         1        0.149060     2.894491E+05     ; C-C, prebuilt c-ca
  1460     1463         1        0.139840     3.858485E+05     ; C-C, prebuilt ca-ca
  1461     1462         1        0.121830     5.336274E+05     ; C-O, prebuilt c-o
  1463     1464         1        0.139840     3.858485E+05     ; C-C, prebuilt ca-ca
  1463     1522         1        0.108600     2.893654E+05     ; C-H, prebuilt ca-ha
  1464     1465         1        0.139840     3.858485E+05     ; C-C, prebuilt ca-ca
  1464     1467         1        0.149060     2.894491E+05     ; C-C, prebuilt c-ca
  1465     1466         1        0.139840     3.858485E+05     ; C-C, prebuilt ca-ca
  1465     1523         1        0.108600     2.893654E+05     ; C-H, prebuilt ca-ha
  1466     1524         1        0.108600     2.893654E+05     ; C-H, prebuilt ca-ha
  1467     1468         1        0.121830     5.336274E+05     ; C-O, prebuilt c-o
  1467     1469         1        0.137890     3.578157E+05     ; C-N, prebuilt c-n
  1469     1470         1        0.141210     3.214986E+05     ; N-C, prebuilt ca-n
  1469     1525         1        0.101290     3.373978E+05     ; N-H, prebuilt hn-n
  1470     1471         1        0.139840     3.858485E+05     ; C-C, prebuilt ca-ca
  1470     1475         1        0.139840     3.858485E+05     ; C-C, prebuilt ca-ca
  1471     1472         1        0.139840     3.858485E+05     ; C-C, prebuilt ca-ca
  1471     1526         1        0.108600     2.893654E+05     ; C-H, prebuilt ca-ha
  1472     1473         1        0.139840     3.858485E+05     ; C-C, prebuilt ca-ca
  1472     1527         1        0.108600     2.893654E+05     ; C-H, prebuilt ca-ha
  1473     1474         1        0.139840     3.858485E+05     ; C-C, prebuilt ca-ca
  1473     1476         1        0.136960     3.151389E+05     ; C-O, prebuilt ca-os
  1474     1475         1        0.139840     3.858485E+05     ; C-C, prebuilt ca-ca
  1474     1528         1        0.108600     2.893654E+05     ; C-H, prebuilt ca-ha
  1475     1529         1        0.108600     2.893654E+05     ; C-H, prebuilt ca-ha
  1476     1477         1        0.136960     3.151389E+05     ; O-C, prebuilt ca-os
  1477     1478         1        0.139840     3.858485E+05     ; C-C, prebuilt ca-ca
  1477     1482         1        0.139840     3.858485E+05     ; C-C, prebuilt ca-ca
  1478     1479         1        0.139840     3.858485E+05     ; C-C, prebuilt ca-ca
  1478     1530         1        0.108600     2.893654E+05     ; C-H, prebuilt ca-ha
  1479     1480         1        0.139840     3.858485E+05     ; C-C, prebuilt ca-ca
  1479     1531         1        0.108600     2.893654E+05     ; C-H, prebuilt ca-ha
  1480     1481         1        0.139840     3.858485E+05     ; C-C, prebuilt ca-ca
  1480     1532         1        0.108600     2.893654E+05     ; C-H, prebuilt ca-ha
  1481     1482         1        0.139840     3.858485E+05     ; C-C, prebuilt ca-ca
  1481     1533         1        0.108600     2.893654E+05     ; C-H, prebuilt ca-ha
  1482     1483         1        0.136960     3.151389E+05     ; C-O, prebuilt ca-os
  1483     1484         1        0.136960     3.151389E+05     ; O-C, prebuilt ca-os
  1484     1485         1        0.139840     3.858485E+05     ; C-C, prebuilt ca-ca
  1484     1489         1        0.139840     3.858485E+05     ; C-C, prebuilt ca-ca
  1485     1486         1        0.139840     3.858485E+05     ; C-C, prebuilt ca-ca
  1485     1534         1        0.108600     2.893654E+05     ; C-H, prebuilt ca-ha
  1486     1487         1        0.139840     3.858485E+05     ; C-C, prebuilt ca-ca
  1486     1535         1        0.108600     2.893654E+05     ; C-H, prebuilt ca-ha
  1487     1488         1        0.139840     3.858485E+05     ; C-C, prebuilt ca-ca
  1487     1490         1        0.141210     3.214986E+05     ; C-N, prebuilt ca-n
  1488     1489         1        0.139840     3.858485E+05     ; C-C, prebuilt ca-ca
  1488     1536         1        0.108600     2.893654E+05     ; C-H, prebuilt ca-ha
  1489     1537         1        0.108600     2.893654E+05     ; C-H, prebuilt ca-ha
  1490     1491         1        0.137890     3.578157E+05     ; N-C, prebuilt c-n
  1490     1538         1        0.101290     3.373978E+05     ; N-H, prebuilt hn-n
  1491     1492         1        0.121830     5.336274E+05     ; C-O, prebuilt c-o
  1491     1493         1        0.149060     2.894491E+05     ; C-C, prebuilt c-ca
  1493     1494         1        0.139840     3.858485E+05     ; C-C, prebuilt ca-ca
  1493     1498         1        0.139840     3.858485E+05     ; C-C, prebuilt ca-ca
  1494     1495         1        0.139840     3.858485E+05     ; C-C, prebuilt ca-ca
  1494     1539         1        0.108600     2.893654E+05     ; C-H, prebuilt ca-ha
  1495     1496         1        0.139840     3.858485E+05     ; C-C, prebuilt ca-ca
  1495     1540         1        0.108600     2.893654E+05     ; C-H, prebuilt ca-ha
  1496     1497         1        0.139840     3.858485E+05     ; C-C, prebuilt ca-ca
  1496     1499         1        0.141210     3.214986E+05     ; C-N, prebuilt ca-n
  1497     1498         1        0.139840     3.858485E+05     ; C-C, prebuilt ca-ca
  1497     1541         1        0.108600     2.893654E+05     ; C-H, prebuilt ca-ha
  1498     1542         1        0.108600     2.893654E+05     ; C-H, prebuilt ca-ha
  1499     1500         1        0.137890     3.578157E+05     ; N-C, prebuilt c-n
  1499     1504         1        0.137890     3.578157E+05     ; N-C, prebuilt c-n
  1500     1501         1        0.121830     5.336274E+05     ; C-O, prebuilt c-o
  1500     1502         1        0.149060     2.894491E+05     ; C-C, prebuilt c-ca
  1502     1503         1        0.139840     3.858485E+05     ; C-C, prebuilt ca-ca
  1502     1509         1        0.139840     3.858485E+05     ; C-C, prebuilt ca-ca
  1503     1504         1        0.149060     2.894491E+05     ; C-C, prebuilt c-ca
  1503     1506         1        0.139840     3.858485E+05     ; C-C, prebuilt ca-ca
  1504     1505         1        0.121830     5.336274E+05     ; C-O, prebuilt c-o
  1506     1507         1        0.140580     3.767274E+05     ; C-C, prebuilt ca-cp
  1506     1543         1        0.108600     2.893654E+05     ; C-H, prebuilt ca-ha
  1507     1508         1        0.140580     3.767274E+05     ; C-C, prebuilt ca-cp
  1507     1549         1        0.148540     2.940515E+05     ; C-C, prebuilt cp-cp
  1508     1509         1        0.139840     3.858485E+05     ; C-C, prebuilt ca-ca
  1508     1544         1        0.108600     2.893654E+05     ; C-H, prebuilt ca-ha
  1509     1545         1        0.108600     2.893654E+05     ; C-H, prebuilt ca-ha
  1510     1546         1        0.109690     2.766461E+05     ; C-H, prebuilt c3-hc
  1510     1547         1        0.109690     2.766461E+05     ; C-H, prebuilt c3-hc
  1510     1548         1        0.109690     2.766461E+05     ; C-H, prebuilt c3-hc
  1549     1550         1        0.140580     3.767274E+05     ; C-C, prebuilt ca-cp
  1549     1554         1        0.140580     3.767274E+05     ; C-C, prebuilt ca-cp
  1550     1551         1        0.139840     3.858485E+05     ; C-C, prebuilt ca-ca
  1550     1630         1        0.108600     2.893654E+05     ; C-H, prebuilt ca-ha
  1551     1552         1        0.139840     3.858485E+05     ; C-C, prebuilt ca-ca
  1551     1631         1        0.108600     2.893654E+05     ; C-H, prebuilt ca-ha
  1552     1553         1        0.139840     3.858485E+05     ; C-C, prebuilt ca-ca
  1552     1558         1        0.149060     2.894491E+05     ; C-C, prebuilt c-ca
  1553     1554         1        0.139840     3.858485E+05     ; C-C, prebuilt ca-ca
  1553     1555         1        0.149060     2.894491E+05     ; C-C, prebuilt c-ca
  1554     1632         1        0.108600     2.893654E+05     ; C-H, prebuilt ca-ha
  1555     1556         1        0.121830     5.336274E+05     ; C-O, prebuilt c-o
  1555     1557         1        0.137890     3.578157E+05     ; C-N, prebuilt c-n
  1557     1558         1        0.137890     3.578157E+05     ; N-C, prebuilt c-n
  1557     1560         1        0.141210     3.214986E+05     ; N-C, prebuilt ca-n
  1558     1559         1        0.121830     5.336274E+05     ; C-O, prebuilt c-o
  1560     1561         1        0.139840     3.858485E+05     ; C-C, prebuilt ca-ca
  1560     1565         1        0.139840     3.858485E+05     ; C-C, prebuilt ca-ca
  1561     1562         1        0.139840     3.858485E+05     ; C-C, prebuilt ca-ca
  1561     1633         1        0.108600     2.893654E+05     ; C-H, prebuilt ca-ha
  1562     1563         1        0.139840     3.858485E+05     ; C-C, prebuilt ca-ca
  1562     1634         1        0.108600     2.893654E+05     ; C-H, prebuilt ca-ha
  1563     1564         1        0.139840     3.858485E+05     ; C-C, prebuilt ca-ca
  1563     1566         1        0.141210     3.214986E+05     ; C-N, prebuilt ca-n
  1564     1565         1        0.139840     3.858485E+05     ; C-C, prebuilt ca-ca
  1564     1635         1        0.108600     2.893654E+05     ; C-H, prebuilt ca-ha
  1565     1636         1        0.108600     2.893654E+05     ; C-H, prebuilt ca-ha
  1566     1567         1        0.137890     3.578157E+05     ; N-C, prebuilt c-n
  1566     1637         1        0.101290     3.373978E+05     ; N-H, prebuilt hn-n
  1567     1568         1        0.121830     5.336274E+05     ; C-O, prebuilt c-o
  1567     1569         1        0.149060     2.894491E+05     ; C-C, prebuilt c-ca
  1569     1570         1        0.139840     3.858485E+05     ; C-C, prebuilt ca-ca
  1569     1574         1        0.139840     3.858485E+05     ; C-C, prebuilt ca-ca
  1570     1571         1        0.139840     3.858485E+05     ; C-C, prebuilt ca-ca
  1570     1638         1        0.108600     2.893654E+05     ; C-H, prebuilt ca-ha
  1571     1572         1        0.139840     3.858485E+05     ; C-C, prebuilt ca-ca
  1571     1639         1        0.108600     2.893654E+05     ; C-H, prebuilt ca-ha
  1572     1573         1        0.139840     3.858485E+05     ; C-C, prebuilt ca-ca
  1572     1629         1        0.151560     2.686128E+05     ; C-C, prebuilt c3-ca
  1573     1574         1        0.139840     3.858485E+05     ; C-C, prebuilt ca-ca
  1573     1640         1        0.108600     2.893654E+05     ; C-H, prebuilt ca-ha
  1574     1575         1        0.141210     3.214986E+05     ; C-N, prebuilt ca-n
  1575     1576         1        0.137890     3.578157E+05     ; N-C, prebuilt c-n
  1575     1580         1        0.137890     3.578157E+05     ; N-C, prebuilt c-n
  1576     1577         1        0.121830     5.336274E+05     ; C-O, prebuilt c-o
  1576     1578         1        0.149060     2.894491E+05     ; C-C, prebuilt c-ca
  1578     1579         1        0.139840     3.858485E+05     ; C-C, prebuilt ca-ca
  1578     1585         1        0.139840     3.858485E+05     ; C-C, prebuilt ca-ca
  1579     1580         1        0.149060     2.894491E+05     ; C-C, prebuilt c-ca
  1579     1582         1        0.139840     3.858485E+05     ; C-C, prebuilt ca-ca
  1580     1581         1        0.121830     5.336274E+05     ; C-O, prebuilt c-o
  1582     1583         1        0.139840     3.858485E+05     ; C-C, prebuilt ca-ca
  1582     1641         1        0.108600     2.893654E+05     ; C-H, prebuilt ca-ha
  1583     1584         1        0.139840     3.858485E+05     ; C-C, prebuilt ca-ca
  1583     1586         1        0.149060     2.894491E+05     ; C-C, prebuilt c-ca
  1584     1585         1        0.139840     3.858485E+05     ; C-C, prebuilt ca-ca
  1584     1642         1        0.108600     2.893654E+05     ; C-H, prebuilt ca-ha
  1585     1643         1        0.108600     2.893654E+05     ; C-H, prebuilt ca-ha
  1586     1587         1        0.121830     5.336274E+05     ; C-O, prebuilt c-o
  1586     1588         1        0.137890     3.578157E+05     ; C-N, prebuilt c-n
  1588     1589         1        0.141210     3.214986E+05     ; N-C, prebuilt ca-n
  1588     1644         1        0.101290     3.373978E+05     ; N-H, prebuilt hn-n
  1589     1590         1        0.139840     3.858485E+05     ; C-C, prebuilt ca-ca
  1589     1594         1        0.139840     3.858485E+05     ; C-C, prebuilt ca-ca
  1590     1591         1        0.139840     3.858485E+05     ; C-C, prebuilt ca-ca
  1590     1645         1        0.108600     2.893654E+05     ; C-H, prebuilt ca-ha
  1591     1592         1        0.139840     3.858485E+05     ; C-C, prebuilt ca-ca
  1591     1646         1        0.108600     2.893654E+05     ; C-H, prebuilt ca-ha
  1592     1593         1        0.139840     3.858485E+05     ; C-C, prebuilt ca-ca
  1592     1595         1        0.136960     3.151389E+05     ; C-O, prebuilt ca-os
  1593     1594         1        0.139840     3.858485E+05     ; C-C, prebuilt ca-ca
  1593     1647         1        0.108600     2.893654E+05     ; C-H, prebuilt ca-ha
  1594     1648         1        0.108600     2.893654E+05     ; C-H, prebuilt ca-ha
  1595     1596         1        0.136960     3.151389E+05     ; O-C, prebuilt ca-os
  1596     1597         1        0.139840     3.858485E+05     ; C-C, prebuilt ca-ca
  1596     1601         1        0.139840     3.858485E+05     ; C-C, prebuilt ca-ca
  1597     1598         1        0.139840     3.858485E+05     ; C-C, prebuilt ca-ca
  1597     1649         1        0.108600     2.893654E+05     ; C-H, prebuilt ca-ha
  1598     1599         1        0.139840     3.858485E+05     ; C-C, prebuilt ca-ca
  1598     1650         1        0.108600     2.893654E+05     ; C-H, prebuilt ca-ha
  1599     1600         1        0.139840     3.858485E+05     ; C-C, prebuilt ca-ca
  1599     1651         1        0.108600     2.893654E+05     ; C-H, prebuilt ca-ha
  1600     1601         1        0.139840     3.858485E+05     ; C-C, prebuilt ca-ca
  1600     1652         1        0.108600     2.893654E+05     ; C-H, prebuilt ca-ha
  1601     1602         1        0.136960     3.151389E+05     ; C-O, prebuilt ca-os
  1602     1603         1        0.136960     3.151389E+05     ; O-C, prebuilt ca-os
  1603     1604         1        0.139840     3.858485E+05     ; C-C, prebuilt ca-ca
  1603     1608         1        0.139840     3.858485E+05     ; C-C, prebuilt ca-ca
  1604     1605         1        0.139840     3.858485E+05     ; C-C, prebuilt ca-ca
  1604     1653         1        0.108600     2.893654E+05     ; C-H, prebuilt ca-ha
  1605     1606         1        0.139840     3.858485E+05     ; C-C, prebuilt ca-ca
  1605     1654         1        0.108600     2.893654E+05     ; C-H, prebuilt ca-ha
  1606     1607         1        0.139840     3.858485E+05     ; C-C, prebuilt ca-ca
  1606     1609         1        0.141210     3.214986E+05     ; C-N, prebuilt ca-n
  1607     1608         1        0.139840     3.858485E+05     ; C-C, prebuilt ca-ca
  1607     1655         1        0.108600     2.893654E+05     ; C-H, prebuilt ca-ha
  1608     1656         1        0.108600     2.893654E+05     ; C-H, prebuilt ca-ha
  1609     1610         1        0.137890     3.578157E+05     ; N-C, prebuilt c-n
  1609     1657         1        0.101290     3.373978E+05     ; N-H, prebuilt hn-n
  1610     1611         1        0.121830     5.336274E+05     ; C-O, prebuilt c-o
  1610     1612         1        0.149060     2.894491E+05     ; C-C, prebuilt c-ca
  1612     1613         1        0.139840     3.858485E+05     ; C-C, prebuilt ca-ca
  1612     1617         1        0.139840     3.858485E+05     ; C-C, prebuilt ca-ca
  1613     1614         1        0.139840     3.858485E+05     ; C-C, prebuilt ca-ca
  1613     1658         1        0.108600     2.893654E+05     ; C-H, prebuilt ca-ha
  1614     1615         1        0.139840     3.858485E+05     ; C-C, prebuilt ca-ca
  1614     1659         1        0.108600     2.893654E+05     ; C-H, prebuilt ca-ha
  1615     1616         1        0.139840     3.858485E+05     ; C-C, prebuilt ca-ca
  1615     1618         1        0.141210     3.214986E+05     ; C-N, prebuilt ca-n
  1616     1617         1        0.139840     3.858485E+05     ; C-C, prebuilt ca-ca
  1616     1660         1        0.108600     2.893654E+05     ; C-H, prebuilt ca-ha
  1617     1661         1        0.108600     2.893654E+05     ; C-H, prebuilt ca-ha
  1618     1619         1        0.137890     3.578157E+05     ; N-C, prebuilt c-n
  1618     1623         1        0.137890     3.578157E+05     ; N-C, prebuilt c-n
  1619     1620         1        0.121830     5.336274E+05     ; C-O, prebuilt c-o
  1619     1621         1        0.149060     2.894491E+05     ; C-C, prebuilt c-ca
  1621     1622         1        0.139840     3.858485E+05     ; C-C, prebuilt ca-ca
  1621     1628         1        0.139840     3.858485E+05     ; C-C, prebuilt ca-ca
  1622     1623         1        0.149060     2.894491E+05     ; C-C, prebuilt c-ca
  1622     1625         1        0.139840     3.858485E+05     ; C-C, prebuilt ca-ca
  1623     1624         1        0.121830     5.336274E+05     ; C-O, prebuilt c-o
  1625     1626         1        0.140580     3.767274E+05     ; C-C, prebuilt ca-cp
  1625     1662         1        0.108600     2.893654E+05     ; C-H, prebuilt ca-ha
  1626     1627         1        0.140580     3.767274E+05     ; C-C, prebuilt ca-cp
  1626     1668         1        0.148540     2.940515E+05     ; C-C, prebuilt cp-cp
  1627     1628         1        0.139840     3.858485E+05     ; C-C, prebuilt ca-ca
  1627     1663         1        0.108600     2.893654E+05     ; C-H, prebuilt ca-ha
  1628     1664         1        0.108600     2.893654E+05     ; C-H, prebuilt ca-ha
  1629     1665         1        0.109690     2.766461E+05     ; C-H, prebuilt c3-hc
  1629     1666         1        0.109690     2.766461E+05     ; C-H, prebuilt c3-hc
  1629     1667         1        0.109690     2.766461E+05     ; C-H, prebuilt c3-hc
  1668     1669         1        0.140580     3.767274E+05     ; C-C, prebuilt ca-cp
  1668     1673         1        0.140580     3.767274E+05     ; C-C, prebuilt ca-cp
  1669     1670         1        0.139840     3.858485E+05     ; C-C, prebuilt ca-ca
  1669     1750         1        0.108600     2.893654E+05     ; C-H, prebuilt ca-ha
  1670     1671         1        0.139840     3.858485E+05     ; C-C, prebuilt ca-ca
  1670     1751         1        0.108600     2.893654E+05     ; C-H, prebuilt ca-ha
  1671     1672         1        0.139840     3.858485E+05     ; C-C, prebuilt ca-ca
  1671     1677         1        0.149060     2.894491E+05     ; C-C, prebuilt c-ca
  1672     1673         1        0.139840     3.858485E+05     ; C-C, prebuilt ca-ca
  1672     1674         1        0.149060     2.894491E+05     ; C-C, prebuilt c-ca
  1673     1752         1        0.108600     2.893654E+05     ; C-H, prebuilt ca-ha
  1674     1675         1        0.121830     5.336274E+05     ; C-O, prebuilt c-o
  1674     1676         1        0.137890     3.578157E+05     ; C-N, prebuilt c-n
  1676     1677         1        0.137890     3.578157E+05     ; N-C, prebuilt c-n
  1676     1679         1        0.141210     3.214986E+05     ; N-C, prebuilt ca-n
  1677     1678         1        0.121830     5.336274E+05     ; C-O, prebuilt c-o
  1679     1680         1        0.139840     3.858485E+05     ; C-C, prebuilt ca-ca
  1679     1684         1        0.139840     3.858485E+05     ; C-C, prebuilt ca-ca
  1680     1681         1        0.139840     3.858485E+05     ; C-C, prebuilt ca-ca
  1680     1753         1        0.108600     2.893654E+05     ; C-H, prebuilt ca-ha
  1681     1682         1        0.139840     3.858485E+05     ; C-C, prebuilt ca-ca
  1681     1754         1        0.108600     2.893654E+05     ; C-H, prebuilt ca-ha
  1682     1683         1        0.139840     3.858485E+05     ; C-C, prebuilt ca-ca
  1682     1685         1        0.141210     3.214986E+05     ; C-N, prebuilt ca-n
  1683     1684         1        0.139840     3.858485E+05     ; C-C, prebuilt ca-ca
  1683     1755         1        0.108600     2.893654E+05     ; C-H, prebuilt ca-ha
  1684     1756         1        0.108600     2.893654E+05     ; C-H, prebuilt ca-ha
  1685     1686         1        0.137890     3.578157E+05     ; N-C, prebuilt c-n
  1685     1757         1        0.101290     3.373978E+05     ; N-H, prebuilt hn-n
  1686     1687         1        0.121830     5.336274E+05     ; C-O, prebuilt c-o
  1686     1688         1        0.149060     2.894491E+05     ; C-C, prebuilt c-ca
  1688     1689         1        0.139840     3.858485E+05     ; C-C, prebuilt ca-ca
  1688     1693         1        0.139840     3.858485E+05     ; C-C, prebuilt ca-ca
  1689     1690         1        0.139840     3.858485E+05     ; C-C, prebuilt ca-ca
  1689     1758         1        0.108600     2.893654E+05     ; C-H, prebuilt ca-ha
  1690     1691         1        0.139840     3.858485E+05     ; C-C, prebuilt ca-ca
  1690     1759         1        0.108600     2.893654E+05     ; C-H, prebuilt ca-ha
  1691     1692         1        0.139840     3.858485E+05     ; C-C, prebuilt ca-ca
  1691     1749         1        0.151560     2.686128E+05     ; C-C, prebuilt c3-ca
  1692     1693         1        0.139840     3.858485E+05     ; C-C, prebuilt ca-ca
  1692     1760         1        0.108600     2.893654E+05     ; C-H, prebuilt ca-ha
  1693     1694         1        0.141210     3.214986E+05     ; C-N, prebuilt ca-n
  1694     1695         1        0.137890     3.578157E+05     ; N-C, prebuilt c-n
  1694     1699         1        0.137890     3.578157E+05     ; N-C, prebuilt c-n
  1695     1696         1        0.121830     5.336274E+05     ; C-O, prebuilt c-o
  1695     1697         1        0.149060     2.894491E+05     ; C-C, prebuilt c-ca
  1697     1698         1        0.139840     3.858485E+05     ; C-C, prebuilt ca-ca
  1697     1704         1        0.139840     3.858485E+05     ; C-C, prebuilt ca-ca
  1698     1699         1        0.149060     2.894491E+05     ; C-C, prebuilt c-ca
  1698     1701         1        0.139840     3.858485E+05     ; C-C, prebuilt ca-ca
  1699     1700         1        0.121830     5.336274E+05     ; C-O, prebuilt c-o
  1701     1702         1        0.139840     3.858485E+05     ; C-C, prebuilt ca-ca
  1701     1761         1        0.108600     2.893654E+05     ; C-H, prebuilt ca-ha
  1702     1703         1        0.139840     3.858485E+05     ; C-C, prebuilt ca-ca
  1702     1705         1        0.149060     2.894491E+05     ; C-C, prebuilt c-ca
  1703     1704         1        0.139840     3.858485E+05     ; C-C, prebuilt ca-ca
  1703     1762         1        0.108600     2.893654E+05     ; C-H, prebuilt ca-ha
  1704     1763         1        0.108600     2.893654E+05     ; C-H, prebuilt ca-ha
  1705     1706         1        0.121830     5.336274E+05     ; C-O, prebuilt c-o
  1705     1707         1        0.137890     3.578157E+05     ; C-N, prebuilt c-n
  1707     1708         1        0.141210     3.214986E+05     ; N-C, prebuilt ca-n
  1707     1764         1        0.101290     3.373978E+05     ; N-H, prebuilt hn-n
  1708     1709         1        0.139840     3.858485E+05     ; C-C, prebuilt ca-ca
  1708     1713         1        0.139840     3.858485E+05     ; C-C, prebuilt ca-ca
  1709     1710         1        0.139840     3.858485E+05     ; C-C, prebuilt ca-ca
  1709     1765         1        0.108600     2.893654E+05     ; C-H, prebuilt ca-ha
  1710     1711         1        0.139840     3.858485E+05     ; C-C, prebuilt ca-ca
  1710     1766         1        0.108600     2.893654E+05     ; C-H, prebuilt ca-ha
  1711     1712         1        0.139840     3.858485E+05     ; C-C, prebuilt ca-ca
  1711     1714         1        0.136960     3.151389E+05     ; C-O, prebuilt ca-os
  1712     1713         1        0.139840     3.858485E+05     ; C-C, prebuilt ca-ca
  1712     1767         1        0.108600     2.893654E+05     ; C-H, prebuilt ca-ha
  1713     1768         1        0.108600     2.893654E+05     ; C-H, prebuilt ca-ha
  1714     1715         1        0.136960     3.151389E+05     ; O-C, prebuilt ca-os
  1715     1716         1        0.139840     3.858485E+05     ; C-C, prebuilt ca-ca
  1715     1720         1        0.139840     3.858485E+05     ; C-C, prebuilt ca-ca
  1716     1717         1        0.139840     3.858485E+05     ; C-C, prebuilt ca-ca
  1716     1769         1        0.108600     2.893654E+05     ; C-H, prebuilt ca-ha
  1717     1718         1        0.139840     3.858485E+05     ; C-C, prebuilt ca-ca
  1717     1770         1        0.108600     2.893654E+05     ; C-H, prebuilt ca-ha
  1718     1719         1        0.139840     3.858485E+05     ; C-C, prebuilt ca-ca
  1718     1771         1        0.108600     2.893654E+05     ; C-H, prebuilt ca-ha
  1719     1720         1        0.139840     3.858485E+05     ; C-C, prebuilt ca-ca
  1719     1772         1        0.108600     2.893654E+05     ; C-H, prebuilt ca-ha
  1720     1721         1        0.136960     3.151389E+05     ; C-O, prebuilt ca-os
  1721     1722         1        0.136960     3.151389E+05     ; O-C, prebuilt ca-os
  1722     1723         1        0.139840     3.858485E+05     ; C-C, prebuilt ca-ca
  1722     1727         1        0.139840     3.858485E+05     ; C-C, prebuilt ca-ca
  1723     1724         1        0.139840     3.858485E+05     ; C-C, prebuilt ca-ca
  1723     1773         1        0.108600     2.893654E+05     ; C-H, prebuilt ca-ha
  1724     1725         1        0.139840     3.858485E+05     ; C-C, prebuilt ca-ca
  1724     1774         1        0.108600     2.893654E+05     ; C-H, prebuilt ca-ha
  1725     1726         1        0.139840     3.858485E+05     ; C-C, prebuilt ca-ca
  1725     1728         1        0.141210     3.214986E+05     ; C-N, prebuilt ca-n
  1726     1727         1        0.139840     3.858485E+05     ; C-C, prebuilt ca-ca
  1726     1775         1        0.108600     2.893654E+05     ; C-H, prebuilt ca-ha
  1727     1776         1        0.108600     2.893654E+05     ; C-H, prebuilt ca-ha
  1728     1729         1        0.137890     3.578157E+05     ; N-C, prebuilt c-n
  1728     1777         1        0.101290     3.373978E+05     ; N-H, prebuilt hn-n
  1729     1730         1        0.121830     5.336274E+05     ; C-O, prebuilt c-o
  1729     1731         1        0.149060     2.894491E+05     ; C-C, prebuilt c-ca
  1731     1732         1        0.139840     3.858485E+05     ; C-C, prebuilt ca-ca
  1731     1736         1        0.139840     3.858485E+05     ; C-C, prebuilt ca-ca
  1732     1733         1        0.139840     3.858485E+05     ; C-C, prebuilt ca-ca
  1732     1778         1        0.108600     2.893654E+05     ; C-H, prebuilt ca-ha
  1733     1734         1        0.139840     3.858485E+05     ; C-C, prebuilt ca-ca
  1733     1779         1        0.108600     2.893654E+05     ; C-H, prebuilt ca-ha
  1734     1735         1        0.139840     3.858485E+05     ; C-C, prebuilt ca-ca
  1734     1737         1        0.141210     3.214986E+05     ; C-N, prebuilt ca-n
  1735     1736         1        0.139840     3.858485E+05     ; C-C, prebuilt ca-ca
  1735     1780         1        0.108600     2.893654E+05     ; C-H, prebuilt ca-ha
  1736     1781         1        0.108600     2.893654E+05     ; C-H, prebuilt ca-ha
  1737     1738         1        0.137890     3.578157E+05     ; N-C, prebuilt c-n
  1737     1742         1        0.137890     3.578157E+05     ; N-C, prebuilt c-n
  1738     1739         1        0.121830     5.336274E+05     ; C-O, prebuilt c-o
  1738     1740         1        0.149060     2.894491E+05     ; C-C, prebuilt c-ca
  1740     1741         1        0.139840     3.858485E+05     ; C-C, prebuilt ca-ca
  1740     1747         1        0.139840     3.858485E+05     ; C-C, prebuilt ca-ca
  1741     1742         1        0.149060     2.894491E+05     ; C-C, prebuilt c-ca
  1741     1744         1        0.139840     3.858485E+05     ; C-C, prebuilt ca-ca
  1742     1743         1        0.121830     5.336274E+05     ; C-O, prebuilt c-o
  1744     1745         1        0.139840     3.858485E+05     ; C-C, prebuilt ca-ca
  1744     1782         1        0.108600     2.893654E+05     ; C-H, prebuilt ca-ha
  1745     1746         1        0.139840     3.858485E+05     ; C-C, prebuilt ca-ca
  1745     1748         1        0.108600     2.893654E+05     ; C-H, prebuilt ca-ha
  1746     1747         1        0.139840     3.858485E+05     ; C-C, prebuilt ca-ca
  1746     1783         1        0.108600     2.893654E+05     ; C-H, prebuilt ca-ha
  1747     1784         1        0.108600     2.893654E+05     ; C-H, prebuilt ca-ha
  1749     1785         1        0.109690     2.766461E+05     ; C-H, prebuilt c3-hc
  1749     1786         1        0.109690     2.766461E+05     ; C-H, prebuilt c3-hc
  1749     1787         1        0.109690     2.766461E+05     ; C-H, prebuilt c3-hc
 
[ angles ]
;  atom_i   atom_j   atom_k  functype    a0 (Deg.)  k (kJ/mol/rad^2)
     1        2        3         1       119.880      4.033376E+02     ; H-C-C, prebuilt ca-ca-ha
     1        2        7         1       119.880      4.033376E+02     ; H-C-C, prebuilt ca-ca-ha
     3        2        7         1       120.020      5.573088E+02     ; C-C-C, prebuilt ca-ca-ca
     2        3        4         1       120.020      5.573088E+02     ; C-C-C, prebuilt ca-ca-ca
     2        3       83         1       119.880      4.033376E+02     ; C-C-H, prebuilt ca-ca-ha
     4        3       83         1       119.880      4.033376E+02     ; C-C-H, prebuilt ca-ca-ha
     3        4        5         1       120.020      5.573088E+02     ; C-C-C, prebuilt ca-ca-ca
     3        4       84         1       119.880      4.033376E+02     ; C-C-H, prebuilt ca-ca-ha
     5        4       84         1       119.880      4.033376E+02     ; C-C-H, prebuilt ca-ca-ha
     4        5        6         1       120.020      5.573088E+02     ; C-C-C, prebuilt ca-ca-ca
     4        5       11         1       120.330      5.380624E+02     ; C-C-C, prebuilt c-ca-ca
     6        5       11         1       120.330      5.380624E+02     ; C-C-C, prebuilt c-ca-ca
     5        6        7         1       120.020      5.573088E+02     ; C-C-C, prebuilt ca-ca-ca
     5        6        8         1       120.330      5.380624E+02     ; C-C-C, prebuilt c-ca-ca
     7        6        8         1       120.330      5.380624E+02     ; C-C-C, prebuilt c-ca-ca
     2        7        6         1       120.020      5.573088E+02     ; C-C-C, prebuilt ca-ca-ca
     2        7       85         1       119.880      4.033376E+02     ; C-C-H, prebuilt ca-ca-ha
     6        7       85         1       119.880      4.033376E+02     ; C-C-H, prebuilt ca-ca-ha
     6        8        9         1       122.600      5.748816E+02     ; C-C-O, prebuilt ca-c-o
     6        8       10         1       115.250      5.665136E+02     ; C-C-N, prebuilt ca-c-n
     9        8       10         1       123.050      6.209056E+02     ; O-C-N, prebuilt n-c-o
     8       10       11         1       127.080      5.330416E+02     ; C-N-C, prebuilt c-n-c
     8       10       13         1       123.710      5.338784E+02     ; C-N-C, prebuilt c-n-ca
    11       10       13         1       123.710      5.338784E+02     ; C-N-C, prebuilt c-n-ca
     5       11       10         1       115.250      5.665136E+02     ; C-C-N, prebuilt ca-c-n
     5       11       12         1       122.600      5.748816E+02     ; C-C-O, prebuilt ca-c-o
    10       11       12         1       123.050      6.209056E+02     ; N-C-O, prebuilt n-c-o
    10       13       14         1       120.190      5.681872E+02     ; N-C-C, prebuilt ca-ca-n
    10       13       18         1       120.190      5.681872E+02     ; N-C-C, prebuilt ca-ca-n
    14       13       18         1       120.020      5.573088E+02     ; C-C-C, prebuilt ca-ca-ca
    13       14       15         1       120.020      5.573088E+02     ; C-C-C, prebuilt ca-ca-ca
    13       14       86         1       119.880      4.033376E+02     ; C-C-H, prebuilt ca-ca-ha
    15       14       86         1       119.880      4.033376E+02     ; C-C-H, prebuilt ca-ca-ha
    14       15       16         1       120.020      5.573088E+02     ; C-C-C, prebuilt ca-ca-ca
    14       15       87         1       119.880      4.033376E+02     ; C-C-H, prebuilt ca-ca-ha
    16       15       87         1       119.880      4.033376E+02     ; C-C-H, prebuilt ca-ca-ha
    15       16       17         1       120.020      5.573088E+02     ; C-C-C, prebuilt ca-ca-ca
    15       16       19         1       120.190      5.681872E+02     ; C-C-N, prebuilt ca-ca-n
    17       16       19         1       120.190      5.681872E+02     ; C-C-N, prebuilt ca-ca-n
    16       17       18         1       120.020      5.573088E+02     ; C-C-C, prebuilt ca-ca-ca
    16       17       88         1       119.880      4.033376E+02     ; C-C-H, prebuilt ca-ca-ha
    18       17       88         1       119.880      4.033376E+02     ; C-C-H, prebuilt ca-ca-ha
    13       18       17         1       120.020      5.573088E+02     ; C-C-C, prebuilt ca-ca-ca
    13       18       89         1       119.880      4.033376E+02     ; C-C-H, prebuilt ca-ca-ha
    17       18       89         1       119.880      4.033376E+02     ; C-C-H, prebuilt ca-ca-ha
    16       19       20         1       123.710      5.338784E+02     ; C-N-C, prebuilt c-n-ca
    16       19       90         1       116.000      3.983168E+02     ; C-N-H, prebuilt ca-n-hn
    20       19       90         1       117.550      4.041744E+02     ; C-N-H, prebuilt c-n-hn
    19       20       21         1       123.050      6.209056E+02     ; N-C-O, prebuilt n-c-o
    19       20       22         1       115.250      5.665136E+02     ; N-C-C, prebuilt ca-c-n
    21       20       22         1       122.600      5.748816E+02     ; O-C-C, prebuilt ca-c-o
    20       22       23         1       120.330      5.380624E+02     ; C-C-C, prebuilt c-ca-ca
    20       22       27         1       120.330      5.380624E+02     ; C-C-C, prebuilt c-ca-ca
    23       22       27         1       120.020      5.573088E+02     ; C-C-C, prebuilt ca-ca-ca
    22       23       24         1       120.020      5.573088E+02     ; C-C-C, prebuilt ca-ca-ca
    22       23       91         1       119.880      4.033376E+02     ; C-C-H, prebuilt ca-ca-ha
    24       23       91         1       119.880      4.033376E+02     ; C-C-H, prebuilt ca-ca-ha
    23       24       25         1       120.020      5.573088E+02     ; C-C-C, prebuilt ca-ca-ca
    23       24       92         1       119.880      4.033376E+02     ; C-C-H, prebuilt ca-ca-ha
    25       24       92         1       119.880      4.033376E+02     ; C-C-H, prebuilt ca-ca-ha
    24       25       26         1       120.020      5.573088E+02     ; C-C-C, prebuilt ca-ca-ca
    24       25       82         1       120.770      5.313680E+02     ; C-C-C, prebuilt c3-ca-ca
    26       25       82         1       120.770      5.313680E+02     ; C-C-C, prebuilt c3-ca-ca
    25       26       27         1       120.020      5.573088E+02     ; C-C-C, prebuilt ca-ca-ca
    25       26       93         1       119.880      4.033376E+02     ; C-C-H, prebuilt ca-ca-ha
    27       26       93         1       119.880      4.033376E+02     ; C-C-H, prebuilt ca-ca-ha
    22       27       26         1       120.020      5.573088E+02     ; C-C-C, prebuilt ca-ca-ca
    22       27       28         1       120.190      5.681872E+02     ; C-C-N, prebuilt ca-ca-n
    26       27       28         1       120.190      5.681872E+02     ; C-C-N, prebuilt ca-ca-n
    27       28       29         1       123.710      5.338784E+02     ; C-N-C, prebuilt c-n-ca
    27       28       33         1       123.710      5.338784E+02     ; C-N-C, prebuilt c-n-ca
    29       28       33         1       127.080      5.330416E+02     ; C-N-C, prebuilt c-n-c
    28       29       30         1       123.050      6.209056E+02     ; N-C-O, prebuilt n-c-o
    28       29       31         1       115.250      5.665136E+02     ; N-C-C, prebuilt ca-c-n
    30       29       31         1       122.600      5.748816E+02     ; O-C-C, prebuilt ca-c-o
    29       31       32         1       120.330      5.380624E+02     ; C-C-C, prebuilt c-ca-ca
    29       31       38         1       120.330      5.380624E+02     ; C-C-C, prebuilt c-ca-ca
    32       31       38         1       120.020      5.573088E+02     ; C-C-C, prebuilt ca-ca-ca
    31       32       33         1       120.330      5.380624E+02     ; C-C-C, prebuilt c-ca-ca
    31       32       35         1       120.020      5.573088E+02     ; C-C-C, prebuilt ca-ca-ca
    33       32       35         1       120.330      5.380624E+02     ; C-C-C, prebuilt c-ca-ca
    28       33       32         1       115.250      5.665136E+02     ; N-C-C, prebuilt ca-c-n
    28       33       34         1       123.050      6.209056E+02     ; N-C-O, prebuilt n-c-o
    32       33       34         1       122.600      5.748816E+02     ; C-C-O, prebuilt ca-c-o
    32       35       36         1       120.020      5.573088E+02     ; C-C-C, prebuilt ca-ca-ca
    32       35       94         1       119.880      4.033376E+02     ; C-C-H, prebuilt ca-ca-ha
    36       35       94         1       119.880      4.033376E+02     ; C-C-H, prebuilt ca-ca-ha
    35       36       37         1       120.020      5.573088E+02     ; C-C-C, prebuilt ca-ca-ca
    35       36       39         1       120.330      5.380624E+02     ; C-C-C, prebuilt c-ca-ca
    37       36       39         1       120.330      5.380624E+02     ; C-C-C, prebuilt c-ca-ca
    36       37       38         1       120.020      5.573088E+02     ; C-C-C, prebuilt ca-ca-ca
    36       37       95         1       119.880      4.033376E+02     ; C-C-H, prebuilt ca-ca-ha
    38       37       95         1       119.880      4.033376E+02     ; C-C-H, prebuilt ca-ca-ha
    31       38       37         1       120.020      5.573088E+02     ; C-C-C, prebuilt ca-ca-ca
    31       38       96         1       119.880      4.033376E+02     ; C-C-H, prebuilt ca-ca-ha
    37       38       96         1       119.880      4.033376E+02     ; C-C-H, prebuilt ca-ca-ha
    36       39       40         1       122.600      5.748816E+02     ; C-C-O, prebuilt ca-c-o
    36       39       41         1       115.250      5.665136E+02     ; C-C-N, prebuilt ca-c-n
    40       39       41         1       123.050      6.209056E+02     ; O-C-N, prebuilt n-c-o
    39       41       42         1       123.710      5.338784E+02     ; C-N-C, prebuilt c-n-ca
    39       41       97         1       117.550      4.041744E+02     ; C-N-H, prebuilt c-n-hn
    42       41       97         1       116.000      3.983168E+02     ; C-N-H, prebuilt ca-n-hn
    41       42       43         1       120.190      5.681872E+02     ; N-C-C, prebuilt ca-ca-n
    41       42       47         1       120.190      5.681872E+02     ; N-C-C, prebuilt ca-ca-n
    43       42       47         1       120.020      5.573088E+02     ; C-C-C, prebuilt ca-ca-ca
    42       43       44         1       120.020      5.573088E+02     ; C-C-C, prebuilt ca-ca-ca
    42       43       98         1       119.880      4.033376E+02     ; C-C-H, prebuilt ca-ca-ha
    44       43       98         1       119.880      4.033376E+02     ; C-C-H, prebuilt ca-ca-ha
    43       44       45         1       120.020      5.573088E+02     ; C-C-C, prebuilt ca-ca-ca
    43       44       99         1       119.880      4.033376E+02     ; C-C-H, prebuilt ca-ca-ha
    45       44       99         1       119.880      4.033376E+02     ; C-C-H, prebuilt ca-ca-ha
    44       45       46         1       120.020      5.573088E+02     ; C-C-C, prebuilt ca-ca-ca
    44       45       48         1       119.200      5.824128E+02     ; C-C-O, prebuilt ca-ca-os
    46       45       48         1       119.200      5.824128E+02     ; C-C-O, prebuilt ca-ca-os
    45       46       47         1       120.020      5.573088E+02     ; C-C-C, prebuilt ca-ca-ca
    45       46      100         1       119.880      4.033376E+02     ; C-C-H, prebuilt ca-ca-ha
    47       46      100         1       119.880      4.033376E+02     ; C-C-H, prebuilt ca-ca-ha
    42       47       46         1       120.020      5.573088E+02     ; C-C-C, prebuilt ca-ca-ca
    42       47      101         1       119.880      4.033376E+02     ; C-C-H, prebuilt ca-ca-ha
    46       47      101         1       119.880      4.033376E+02     ; C-C-H, prebuilt ca-ca-ha
    45       48       49         1       119.890      5.313680E+02     ; C-O-C, prebuilt ca-os-ca
    48       49       50         1       119.200      5.824128E+02     ; O-C-C, prebuilt ca-ca-os
    48       49       54         1       119.200      5.824128E+02     ; O-C-C, prebuilt ca-ca-os
    50       49       54         1       120.020      5.573088E+02     ; C-C-C, prebuilt ca-ca-ca
    49       50       51         1       120.020      5.573088E+02     ; C-C-C, prebuilt ca-ca-ca
    49       50      102         1       119.880      4.033376E+02     ; C-C-H, prebuilt ca-ca-ha
    51       50      102         1       119.880      4.033376E+02     ; C-C-H, prebuilt ca-ca-ha
    50       51       52         1       120.020      5.573088E+02     ; C-C-C, prebuilt ca-ca-ca
    50       51      103         1       119.880      4.033376E+02     ; C-C-H, prebuilt ca-ca-ha
    52       51      103         1       119.880      4.033376E+02     ; C-C-H, prebuilt ca-ca-ha
    51       52       53         1       120.020      5.573088E+02     ; C-C-C, prebuilt ca-ca-ca
    51       52      104         1       119.880      4.033376E+02     ; C-C-H, prebuilt ca-ca-ha
    53       52      104         1       119.880      4.033376E+02     ; C-C-H, prebuilt ca-ca-ha
    52       53       54         1       120.020      5.573088E+02     ; C-C-C, prebuilt ca-ca-ca
    52       53      105         1       119.880      4.033376E+02     ; C-C-H, prebuilt ca-ca-ha
    54       53      105         1       119.880      4.033376E+02     ; C-C-H, prebuilt ca-ca-ha
    49       54       53         1       120.020      5.573088E+02     ; C-C-C, prebuilt ca-ca-ca
    49       54       55         1       119.200      5.824128E+02     ; C-C-O, prebuilt ca-ca-os
    53       54       55         1       119.200      5.824128E+02     ; C-C-O, prebuilt ca-ca-os
    54       55       56         1       119.890      5.313680E+02     ; C-O-C, prebuilt ca-os-ca
    55       56       57         1       119.200      5.824128E+02     ; O-C-C, prebuilt ca-ca-os
    55       56       61         1       119.200      5.824128E+02     ; O-C-C, prebuilt ca-ca-os
    57       56       61         1       120.020      5.573088E+02     ; C-C-C, prebuilt ca-ca-ca
    56       57       58         1       120.020      5.573088E+02     ; C-C-C, prebuilt ca-ca-ca
    56       57      106         1       119.880      4.033376E+02     ; C-C-H, prebuilt ca-ca-ha
    58       57      106         1       119.880      4.033376E+02     ; C-C-H, prebuilt ca-ca-ha
    57       58       59         1       120.020      5.573088E+02     ; C-C-C, prebuilt ca-ca-ca
    57       58      107         1       119.880      4.033376E+02     ; C-C-H, prebuilt ca-ca-ha
    59       58      107         1       119.880      4.033376E+02     ; C-C-H, prebuilt ca-ca-ha
    58       59       60         1       120.020      5.573088E+02     ; C-C-C, prebuilt ca-ca-ca
    58       59       62         1       120.190      5.681872E+02     ; C-C-N, prebuilt ca-ca-n
    60       59       62         1       120.190      5.681872E+02     ; C-C-N, prebuilt ca-ca-n
    59       60       61         1       120.020      5.573088E+02     ; C-C-C, prebuilt ca-ca-ca
    59       60      108         1       119.880      4.033376E+02     ; C-C-H, prebuilt ca-ca-ha
    61       60      108         1       119.880      4.033376E+02     ; C-C-H, prebuilt ca-ca-ha
    56       61       60         1       120.020      5.573088E+02     ; C-C-C, prebuilt ca-ca-ca
    56       61      109         1       119.880      4.033376E+02     ; C-C-H, prebuilt ca-ca-ha
    60       61      109         1       119.880      4.033376E+02     ; C-C-H, prebuilt ca-ca-ha
    59       62       63         1       123.710      5.338784E+02     ; C-N-C, prebuilt c-n-ca
    59       62      110         1       116.000      3.983168E+02     ; C-N-H, prebuilt ca-n-hn
    63       62      110         1       117.550      4.041744E+02     ; C-N-H, prebuilt c-n-hn
    62       63       64         1       123.050      6.209056E+02     ; N-C-O, prebuilt n-c-o
    62       63       65         1       115.250      5.665136E+02     ; N-C-C, prebuilt ca-c-n
    64       63       65         1       122.600      5.748816E+02     ; O-C-C, prebuilt ca-c-o
    63       65       66         1       120.330      5.380624E+02     ; C-C-C, prebuilt c-ca-ca
    63       65       70         1       120.330      5.380624E+02     ; C-C-C, prebuilt c-ca-ca
    66       65       70         1       120.020      5.573088E+02     ; C-C-C, prebuilt ca-ca-ca
    65       66       67         1       120.020      5.573088E+02     ; C-C-C, prebuilt ca-ca-ca
    65       66      111         1       119.880      4.033376E+02     ; C-C-H, prebuilt ca-ca-ha
    67       66      111         1       119.880      4.033376E+02     ; C-C-H, prebuilt ca-ca-ha
    66       67       68         1       120.020      5.573088E+02     ; C-C-C, prebuilt ca-ca-ca
    66       67      112         1       119.880      4.033376E+02     ; C-C-H, prebuilt ca-ca-ha
    68       67      112         1       119.880      4.033376E+02     ; C-C-H, prebuilt ca-ca-ha
    67       68       69         1       120.020      5.573088E+02     ; C-C-C, prebuilt ca-ca-ca
    67       68       71         1       120.190      5.681872E+02     ; C-C-N, prebuilt ca-ca-n
    69       68       71         1       120.190      5.681872E+02     ; C-C-N, prebuilt ca-ca-n
    68       69       70         1       120.020      5.573088E+02     ; C-C-C, prebuilt ca-ca-ca
    68       69      113         1       119.880      4.033376E+02     ; C-C-H, prebuilt ca-ca-ha
    70       69      113         1       119.880      4.033376E+02     ; C-C-H, prebuilt ca-ca-ha
    65       70       69         1       120.020      5.573088E+02     ; C-C-C, prebuilt ca-ca-ca
    65       70      114         1       119.880      4.033376E+02     ; C-C-H, prebuilt ca-ca-ha
    69       70      114         1       119.880      4.033376E+02     ; C-C-H, prebuilt ca-ca-ha
    68       71       72         1       123.710      5.338784E+02     ; C-N-C, prebuilt c-n-ca
    68       71       76         1       123.710      5.338784E+02     ; C-N-C, prebuilt c-n-ca
    72       71       76         1       127.080      5.330416E+02     ; C-N-C, prebuilt c-n-c
    71       72       73         1       123.050      6.209056E+02     ; N-C-O, prebuilt n-c-o
    71       72       74         1       115.250      5.665136E+02     ; N-C-C, prebuilt ca-c-n
    73       72       74         1       122.600      5.748816E+02     ; O-C-C, prebuilt ca-c-o
    72       74       75         1       120.330      5.380624E+02     ; C-C-C, prebuilt c-ca-ca
    72       74       81         1       120.330      5.380624E+02     ; C-C-C, prebuilt c-ca-ca
    75       74       81         1       120.020      5.573088E+02     ; C-C-C, prebuilt ca-ca-ca
    74       75       76         1       120.330      5.380624E+02     ; C-C-C, prebuilt c-ca-ca
    74       75       78         1       120.020      5.573088E+02     ; C-C-C, prebuilt ca-ca-ca
    76       75       78         1       120.330      5.380624E+02     ; C-C-C, prebuilt c-ca-ca
    71       76       75         1       115.250      5.665136E+02     ; N-C-C, prebuilt ca-c-n
    71       76       77         1       123.050      6.209056E+02     ; N-C-O, prebuilt n-c-o
    75       76       77         1       122.600      5.748816E+02     ; C-C-O, prebuilt ca-c-o
    75       78       79         1       120.690      5.547984E+02     ; C-C-C, prebuilt ca-ca-cp
    75       78      115         1       119.880      4.033376E+02     ; C-C-H, prebuilt ca-ca-ha
    79       78      115         1       119.860      4.016640E+02     ; C-C-H, prebuilt cp-ca-ha
    78       79       80         1       118.380      5.581456E+02     ; C-C-C, prebuilt ca-cp-ca
    78       79      121         1       121.110      5.355520E+02     ; C-C-C, prebuilt ca-cp-cp
    80       79      121         1       121.110      5.355520E+02     ; C-C-C, prebuilt ca-cp-cp
    79       80       81         1       120.690      5.547984E+02     ; C-C-C, prebuilt ca-ca-cp
    79       80      116         1       119.860      4.016640E+02     ; C-C-H, prebuilt cp-ca-ha
    81       80      116         1       119.880      4.033376E+02     ; C-C-H, prebuilt ca-ca-ha
    74       81       80         1       120.020      5.573088E+02     ; C-C-C, prebuilt ca-ca-ca
    74       81      117         1       119.880      4.033376E+02     ; C-C-H, prebuilt ca-ca-ha
    80       81      117         1       119.880      4.033376E+02     ; C-C-H, prebuilt ca-ca-ha
    25       82      118         1       110.470      3.916224E+02     ; C-C-H, prebuilt ca-c3-hc
    25       82      119         1       110.470      3.916224E+02     ; C-C-H, prebuilt ca-c3-hc
    25       82      120         1       110.470      3.916224E+02     ; C-C-H, prebuilt ca-c3-hc
   118       82      119         1       107.580      3.296992E+02     ; H-C-H, prebuilt hc-c3-hc
   118       82      120         1       107.580      3.296992E+02     ; H-C-H, prebuilt hc-c3-hc
   119       82      120         1       107.580      3.296992E+02     ; H-C-H, prebuilt hc-c3-hc
    79      121      122         1       121.110      5.355520E+02     ; C-C-C, prebuilt ca-cp-cp
    79      121      126         1       121.110      5.355520E+02     ; C-C-C, prebuilt ca-cp-cp
   122      121      126         1       118.380      5.581456E+02     ; C-C-C, prebuilt ca-cp-ca
   121      122      123         1       120.690      5.547984E+02     ; C-C-C, prebuilt ca-ca-cp
   121      122      202         1       119.860      4.016640E+02     ; C-C-H, prebuilt cp-ca-ha
   123      122      202         1       119.880      4.033376E+02     ; C-C-H, prebuilt ca-ca-ha
   122      123      124         1       120.020      5.573088E+02     ; C-C-C, prebuilt ca-ca-ca
   122      123      203         1       119.880      4.033376E+02     ; C-C-H, prebuilt ca-ca-ha
   124      123      203         1       119.880      4.033376E+02     ; C-C-H, prebuilt ca-ca-ha
   123      124      125         1       120.020      5.573088E+02     ; C-C-C, prebuilt ca-ca-ca
   123      124      130         1       120.330      5.380624E+02     ; C-C-C, prebuilt c-ca-ca
   125      124      130         1       120.330      5.380624E+02     ; C-C-C, prebuilt c-ca-ca
   124      125      126         1       120.020      5.573088E+02     ; C-C-C, prebuilt ca-ca-ca
   124      125      127         1       120.330      5.380624E+02     ; C-C-C, prebuilt c-ca-ca
   126      125      127         1       120.330      5.380624E+02     ; C-C-C, prebuilt c-ca-ca
   121      126      125         1       120.690      5.547984E+02     ; C-C-C, prebuilt ca-ca-cp
   121      126      204         1       119.860      4.016640E+02     ; C-C-H, prebuilt cp-ca-ha
   125      126      204         1       119.880      4.033376E+02     ; C-C-H, prebuilt ca-ca-ha
   125      127      128         1       122.600      5.748816E+02     ; C-C-O, prebuilt ca-c-o
   125      127      129         1       115.250      5.665136E+02     ; C-C-N, prebuilt ca-c-n
   128      127      129         1       123.050      6.209056E+02     ; O-C-N, prebuilt n-c-o
   127      129      130         1       127.080      5.330416E+02     ; C-N-C, prebuilt c-n-c
   127      129      132         1       123.710      5.338784E+02     ; C-N-C, prebuilt c-n-ca
   130      129      132         1       123.710      5.338784E+02     ; C-N-C, prebuilt c-n-ca
   124      130      129         1       115.250      5.665136E+02     ; C-C-N, prebuilt ca-c-n
   124      130      131         1       122.600      5.748816E+02     ; C-C-O, prebuilt ca-c-o
   129      130      131         1       123.050      6.209056E+02     ; N-C-O, prebuilt n-c-o
   129      132      133         1       120.190      5.681872E+02     ; N-C-C, prebuilt ca-ca-n
   129      132      137         1       120.190      5.681872E+02     ; N-C-C, prebuilt ca-ca-n
   133      132      137         1       120.020      5.573088E+02     ; C-C-C, prebuilt ca-ca-ca
   132      133      134         1       120.020      5.573088E+02     ; C-C-C, prebuilt ca-ca-ca
   132      133      205         1       119.880      4.033376E+02     ; C-C-H, prebuilt ca-ca-ha
   134      133      205         1       119.880      4.033376E+02     ; C-C-H, prebuilt ca-ca-ha
   133      134      135         1       120.020      5.573088E+02     ; C-C-C, prebuilt ca-ca-ca
   133      134      206         1       119.880      4.033376E+02     ; C-C-H, prebuilt ca-ca-ha
   135      134      206         1       119.880      4.033376E+02     ; C-C-H, prebuilt ca-ca-ha
   134      135      136         1       120.020      5.573088E+02     ; C-C-C, prebuilt ca-ca-ca
   134      135      138         1       120.190      5.681872E+02     ; C-C-N, prebuilt ca-ca-n
   136      135      138         1       120.190      5.681872E+02     ; C-C-N, prebuilt ca-ca-n
   135      136      137         1       120.020      5.573088E+02     ; C-C-C, prebuilt ca-ca-ca
   135      136      207         1       119.880      4.033376E+02     ; C-C-H, prebuilt ca-ca-ha
   137      136      207         1       119.880      4.033376E+02     ; C-C-H, prebuilt ca-ca-ha
   132      137      136         1       120.020      5.573088E+02     ; C-C-C, prebuilt ca-ca-ca
   132      137      208         1       119.880      4.033376E+02     ; C-C-H, prebuilt ca-ca-ha
   136      137      208         1       119.880      4.033376E+02     ; C-C-H, prebuilt ca-ca-ha
   135      138      139         1       123.710      5.338784E+02     ; C-N-C, prebuilt c-n-ca
   135      138      209         1       116.000      3.983168E+02     ; C-N-H, prebuilt ca-n-hn
   139      138      209         1       117.550      4.041744E+02     ; C-N-H, prebuilt c-n-hn
   138      139      140         1       123.050      6.209056E+02     ; N-C-O, prebuilt n-c-o
   138      139      141         1       115.250      5.665136E+02     ; N-C-C, prebuilt ca-c-n
   140      139      141         1       122.600      5.748816E+02     ; O-C-C, prebuilt ca-c-o
   139      141      142         1       120.330      5.380624E+02     ; C-C-C, prebuilt c-ca-ca
   139      141      146         1       120.330      5.380624E+02     ; C-C-C, prebuilt c-ca-ca
   142      141      146         1       120.020      5.573088E+02     ; C-C-C, prebuilt ca-ca-ca
   141      142      143         1       120.020      5.573088E+02     ; C-C-C, prebuilt ca-ca-ca
   141      142      210         1       119.880      4.033376E+02     ; C-C-H, prebuilt ca-ca-ha
   143      142      210         1       119.880      4.033376E+02     ; C-C-H, prebuilt ca-ca-ha
   142      143      144         1       120.020      5.573088E+02     ; C-C-C, prebuilt ca-ca-ca
   142      143      211         1       119.880      4.033376E+02     ; C-C-H, prebuilt ca-ca-ha
   144      143      211         1       119.880      4.033376E+02     ; C-C-H, prebuilt ca-ca-ha
   143      144      145         1       120.020      5.573088E+02     ; C-C-C, prebuilt ca-ca-ca
   143      144      201         1       120.770      5.313680E+02     ; C-C-C, prebuilt c3-ca-ca
   145      144      201         1       120.770      5.313680E+02     ; C-C-C, prebuilt c3-ca-ca
   144      145      146         1       120.020      5.573088E+02     ; C-C-C, prebuilt ca-ca-ca
   144      145      212         1       119.880      4.033376E+02     ; C-C-H, prebuilt ca-ca-ha
   146      145      212         1       119.880      4.033376E+02     ; C-C-H, prebuilt ca-ca-ha
   141      146      145         1       120.020      5.573088E+02     ; C-C-C, prebuilt ca-ca-ca
   141      146      147         1       120.190      5.681872E+02     ; C-C-N, prebuilt ca-ca-n
   145      146      147         1       120.190      5.681872E+02     ; C-C-N, prebuilt ca-ca-n
   146      147      148         1       123.710      5.338784E+02     ; C-N-C, prebuilt c-n-ca
   146      147      152         1       123.710      5.338784E+02     ; C-N-C, prebuilt c-n-ca
   148      147      152         1       127.080      5.330416E+02     ; C-N-C, prebuilt c-n-c
   147      148      149         1       123.050      6.209056E+02     ; N-C-O, prebuilt n-c-o
   147      148      150         1       115.250      5.665136E+02     ; N-C-C, prebuilt ca-c-n
   149      148      150         1       122.600      5.748816E+02     ; O-C-C, prebuilt ca-c-o
   148      150      151         1       120.330      5.380624E+02     ; C-C-C, prebuilt c-ca-ca
   148      150      157         1       120.330      5.380624E+02     ; C-C-C, prebuilt c-ca-ca
   151      150      157         1       120.020      5.573088E+02     ; C-C-C, prebuilt ca-ca-ca
   150      151      152         1       120.330      5.380624E+02     ; C-C-C, prebuilt c-ca-ca
   150      151      154         1       120.020      5.573088E+02     ; C-C-C, prebuilt ca-ca-ca
   152      151      154         1       120.330      5.380624E+02     ; C-C-C, prebuilt c-ca-ca
   147      152      151         1       115.250      5.665136E+02     ; N-C-C, prebuilt ca-c-n
   147      152      153         1       123.050      6.209056E+02     ; N-C-O, prebuilt n-c-o
   151      152      153         1       122.600      5.748816E+02     ; C-C-O, prebuilt ca-c-o
   151      154      155         1       120.020      5.573088E+02     ; C-C-C, prebuilt ca-ca-ca
   151      154      213         1       119.880      4.033376E+02     ; C-C-H, prebuilt ca-ca-ha
   155      154      213         1       119.880      4.033376E+02     ; C-C-H, prebuilt ca-ca-ha
   154      155      156         1       120.020      5.573088E+02     ; C-C-C, prebuilt ca-ca-ca
   154      155      158         1       120.330      5.380624E+02     ; C-C-C, prebuilt c-ca-ca
   156      155      158         1       120.330      5.380624E+02     ; C-C-C, prebuilt c-ca-ca
   155      156      157         1       120.020      5.573088E+02     ; C-C-C, prebuilt ca-ca-ca
   155      156      214         1       119.880      4.033376E+02     ; C-C-H, prebuilt ca-ca-ha
   157      156      214         1       119.880      4.033376E+02     ; C-C-H, prebuilt ca-ca-ha
   150      157      156         1       120.020      5.573088E+02     ; C-C-C, prebuilt ca-ca-ca
   150      157      215         1       119.880      4.033376E+02     ; C-C-H, prebuilt ca-ca-ha
   156      157      215         1       119.880      4.033376E+02     ; C-C-H, prebuilt ca-ca-ha
   155      158      159         1       122.600      5.748816E+02     ; C-C-O, prebuilt ca-c-o
   155      158      160         1       115.250      5.665136E+02     ; C-C-N, prebuilt ca-c-n
   159      158      160         1       123.050      6.209056E+02     ; O-C-N, prebuilt n-c-o
   158      160      161         1       123.710      5.338784E+02     ; C-N-C, prebuilt c-n-ca
   158      160      216         1       117.550      4.041744E+02     ; C-N-H, prebuilt c-n-hn
   161      160      216         1       116.000      3.983168E+02     ; C-N-H, prebuilt ca-n-hn
   160      161      162         1       120.190      5.681872E+02     ; N-C-C, prebuilt ca-ca-n
   160      161      166         1       120.190      5.681872E+02     ; N-C-C, prebuilt ca-ca-n
   162      161      166         1       120.020      5.573088E+02     ; C-C-C, prebuilt ca-ca-ca
   161      162      163         1       120.020      5.573088E+02     ; C-C-C, prebuilt ca-ca-ca
   161      162      217         1       119.880      4.033376E+02     ; C-C-H, prebuilt ca-ca-ha
   163      162      217         1       119.880      4.033376E+02     ; C-C-H, prebuilt ca-ca-ha
   162      163      164         1       120.020      5.573088E+02     ; C-C-C, prebuilt ca-ca-ca
   162      163      218         1       119.880      4.033376E+02     ; C-C-H, prebuilt ca-ca-ha
   164      163      218         1       119.880      4.033376E+02     ; C-C-H, prebuilt ca-ca-ha
   163      164      165         1       120.020      5.573088E+02     ; C-C-C, prebuilt ca-ca-ca
   163      164      167         1       119.200      5.824128E+02     ; C-C-O, prebuilt ca-ca-os
   165      164      167         1       119.200      5.824128E+02     ; C-C-O, prebuilt ca-ca-os
   164      165      166         1       120.020      5.573088E+02     ; C-C-C, prebuilt ca-ca-ca
   164      165      219         1       119.880      4.033376E+02     ; C-C-H, prebuilt ca-ca-ha
   166      165      219         1       119.880      4.033376E+02     ; C-C-H, prebuilt ca-ca-ha
   161      166      165         1       120.020      5.573088E+02     ; C-C-C, prebuilt ca-ca-ca
   161      166      220         1       119.880      4.033376E+02     ; C-C-H, prebuilt ca-ca-ha
   165      166      220         1       119.880      4.033376E+02     ; C-C-H, prebuilt ca-ca-ha
   164      167      168         1       119.890      5.313680E+02     ; C-O-C, prebuilt ca-os-ca
   167      168      169         1       119.200      5.824128E+02     ; O-C-C, prebuilt ca-ca-os
   167      168      173         1       119.200      5.824128E+02     ; O-C-C, prebuilt ca-ca-os
   169      168      173         1       120.020      5.573088E+02     ; C-C-C, prebuilt ca-ca-ca
   168      169      170         1       120.020      5.573088E+02     ; C-C-C, prebuilt ca-ca-ca
   168      169      221         1       119.880      4.033376E+02     ; C-C-H, prebuilt ca-ca-ha
   170      169      221         1       119.880      4.033376E+02     ; C-C-H, prebuilt ca-ca-ha
   169      170      171         1       120.020      5.573088E+02     ; C-C-C, prebuilt ca-ca-ca
   169      170      222         1       119.880      4.033376E+02     ; C-C-H, prebuilt ca-ca-ha
   171      170      222         1       119.880      4.033376E+02     ; C-C-H, prebuilt ca-ca-ha
   170      171      172         1       120.020      5.573088E+02     ; C-C-C, prebuilt ca-ca-ca
   170      171      223         1       119.880      4.033376E+02     ; C-C-H, prebuilt ca-ca-ha
   172      171      223         1       119.880      4.033376E+02     ; C-C-H, prebuilt ca-ca-ha
   171      172      173         1       120.020      5.573088E+02     ; C-C-C, prebuilt ca-ca-ca
   171      172      224         1       119.880      4.033376E+02     ; C-C-H, prebuilt ca-ca-ha
   173      172      224         1       119.880      4.033376E+02     ; C-C-H, prebuilt ca-ca-ha
   168      173      172         1       120.020      5.573088E+02     ; C-C-C, prebuilt ca-ca-ca
   168      173      174         1       119.200      5.824128E+02     ; C-C-O, prebuilt ca-ca-os
   172      173      174         1       119.200      5.824128E+02     ; C-C-O, prebuilt ca-ca-os
   173      174      175         1       119.890      5.313680E+02     ; C-O-C, prebuilt ca-os-ca
   174      175      176         1       119.200      5.824128E+02     ; O-C-C, prebuilt ca-ca-os
   174      175      180         1       119.200      5.824128E+02     ; O-C-C, prebuilt ca-ca-os
   176      175      180         1       120.020      5.573088E+02     ; C-C-C, prebuilt ca-ca-ca
   175      176      177         1       120.020      5.573088E+02     ; C-C-C, prebuilt ca-ca-ca
   175      176      225         1       119.880      4.033376E+02     ; C-C-H, prebuilt ca-ca-ha
   177      176      225         1       119.880      4.033376E+02     ; C-C-H, prebuilt ca-ca-ha
   176      177      178         1       120.020      5.573088E+02     ; C-C-C, prebuilt ca-ca-ca
   176      177      226         1       119.880      4.033376E+02     ; C-C-H, prebuilt ca-ca-ha
   178      177      226         1       119.880      4.033376E+02     ; C-C-H, prebuilt ca-ca-ha
   177      178      179         1       120.020      5.573088E+02     ; C-C-C, prebuilt ca-ca-ca
   177      178      181         1       120.190      5.681872E+02     ; C-C-N, prebuilt ca-ca-n
   179      178      181         1       120.190      5.681872E+02     ; C-C-N, prebuilt ca-ca-n
   178      179      180         1       120.020      5.573088E+02     ; C-C-C, prebuilt ca-ca-ca
   178      179      227         1       119.880      4.033376E+02     ; C-C-H, prebuilt ca-ca-ha
   180      179      227         1       119.880      4.033376E+02     ; C-C-H, prebuilt ca-ca-ha
   175      180      179         1       120.020      5.573088E+02     ; C-C-C, prebuilt ca-ca-ca
   175      180      228         1       119.880      4.033376E+02     ; C-C-H, prebuilt ca-ca-ha
   179      180      228         1       119.880      4.033376E+02     ; C-C-H, prebuilt ca-ca-ha
   178      181      182         1       123.710      5.338784E+02     ; C-N-C, prebuilt c-n-ca
   178      181      229         1       116.000      3.983168E+02     ; C-N-H, prebuilt ca-n-hn
   182      181      229         1       117.550      4.041744E+02     ; C-N-H, prebuilt c-n-hn
   181      182      183         1       123.050      6.209056E+02     ; N-C-O, prebuilt n-c-o
   181      182      184         1       115.250      5.665136E+02     ; N-C-C, prebuilt ca-c-n
   183      182      184         1       122.600      5.748816E+02     ; O-C-C, prebuilt ca-c-o
   182      184      185         1       120.330      5.380624E+02     ; C-C-C, prebuilt c-ca-ca
   182      184      189         1       120.330      5.380624E+02     ; C-C-C, prebuilt c-ca-ca
   185      184      189         1       120.020      5.573088E+02     ; C-C-C, prebuilt ca-ca-ca
   184      185      186         1       120.020      5.573088E+02     ; C-C-C, prebuilt ca-ca-ca
   184      185      230         1       119.880      4.033376E+02     ; C-C-H, prebuilt ca-ca-ha
   186      185      230         1       119.880      4.033376E+02     ; C-C-H, prebuilt ca-ca-ha
   185      186      187         1       120.020      5.573088E+02     ; C-C-C, prebuilt ca-ca-ca
   185      186      231         1       119.880      4.033376E+02     ; C-C-H, prebuilt ca-ca-ha
   187      186      231         1       119.880      4.033376E+02     ; C-C-H, prebuilt ca-ca-ha
   186      187      188         1       120.020      5.573088E+02     ; C-C-C, prebuilt ca-ca-ca
   186      187      190         1       120.190      5.681872E+02     ; C-C-N, prebuilt ca-ca-n
   188      187      190         1       120.190      5.681872E+02     ; C-C-N, prebuilt ca-ca-n
   187      188      189         1       120.020      5.573088E+02     ; C-C-C, prebuilt ca-ca-ca
   187      188      232         1       119.880      4.033376E+02     ; C-C-H, prebuilt ca-ca-ha
   189      188      232         1       119.880      4.033376E+02     ; C-C-H, prebuilt ca-ca-ha
   184      189      188         1       120.020      5.573088E+02     ; C-C-C, prebuilt ca-ca-ca
   184      189      233         1       119.880      4.033376E+02     ; C-C-H, prebuilt ca-ca-ha
   188      189      233         1       119.880      4.033376E+02     ; C-C-H, prebuilt ca-ca-ha
   187      190      191         1       123.710      5.338784E+02     ; C-N-C, prebuilt c-n-ca
   187      190      195         1       123.710      5.338784E+02     ; C-N-C, prebuilt c-n-ca
   191      190      195         1       127.080      5.330416E+02     ; C-N-C, prebuilt c-n-c
   190      191      192         1       123.050      6.209056E+02     ; N-C-O, prebuilt n-c-o
   190      191      193         1       115.250      5.665136E+02     ; N-C-C, prebuilt ca-c-n
   192      191      193         1       122.600      5.748816E+02     ; O-C-C, prebuilt ca-c-o
   191      193      194         1       120.330      5.380624E+02     ; C-C-C, prebuilt c-ca-ca
   191      193      200         1       120.330      5.380624E+02     ; C-C-C, prebuilt c-ca-ca
   194      193      200         1       120.020      5.573088E+02     ; C-C-C, prebuilt ca-ca-ca
   193      194      195         1       120.330      5.380624E+02     ; C-C-C, prebuilt c-ca-ca
   193      194      197         1       120.020      5.573088E+02     ; C-C-C, prebuilt ca-ca-ca
   195      194      197         1       120.330      5.380624E+02     ; C-C-C, prebuilt c-ca-ca
   190      195      194         1       115.250      5.665136E+02     ; N-C-C, prebuilt ca-c-n
   190      195      196         1       123.050      6.209056E+02     ; N-C-O, prebuilt n-c-o
   194      195      196         1       122.600      5.748816E+02     ; C-C-O, prebuilt ca-c-o
   194      197      198         1       120.690      5.547984E+02     ; C-C-C, prebuilt ca-ca-cp
   194      197      234         1       119.880      4.033376E+02     ; C-C-H, prebuilt ca-ca-ha
   198      197      234         1       119.860      4.016640E+02     ; C-C-H, prebuilt cp-ca-ha
   197      198      199         1       118.380      5.581456E+02     ; C-C-C, prebuilt ca-cp-ca
   197      198      240         1       121.110      5.355520E+02     ; C-C-C, prebuilt ca-cp-cp
   199      198      240         1       121.110      5.355520E+02     ; C-C-C, prebuilt ca-cp-cp
   198      199      200         1       120.690      5.547984E+02     ; C-C-C, prebuilt ca-ca-cp
   198      199      235         1       119.860      4.016640E+02     ; C-C-H, prebuilt cp-ca-ha
   200      199      235         1       119.880      4.033376E+02     ; C-C-H, prebuilt ca-ca-ha
   193      200      199         1       120.020      5.573088E+02     ; C-C-C, prebuilt ca-ca-ca
   193      200      236         1       119.880      4.033376E+02     ; C-C-H, prebuilt ca-ca-ha
   199      200      236         1       119.880      4.033376E+02     ; C-C-H, prebuilt ca-ca-ha
   144      201      237         1       110.470      3.916224E+02     ; C-C-H, prebuilt ca-c3-hc
   144      201      238         1       110.470      3.916224E+02     ; C-C-H, prebuilt ca-c3-hc
   144      201      239         1       110.470      3.916224E+02     ; C-C-H, prebuilt ca-c3-hc
   237      201      238         1       107.580      3.296992E+02     ; H-C-H, prebuilt hc-c3-hc
   237      201      239         1       107.580      3.296992E+02     ; H-C-H, prebuilt hc-c3-hc
   238      201      239         1       107.580      3.296992E+02     ; H-C-H, prebuilt hc-c3-hc
   198      240      241         1       121.110      5.355520E+02     ; C-C-C, prebuilt ca-cp-cp
   198      240      245         1       121.110      5.355520E+02     ; C-C-C, prebuilt ca-cp-cp
   241      240      245         1       118.380      5.581456E+02     ; C-C-C, prebuilt ca-cp-ca
   240      241      242         1       120.690      5.547984E+02     ; C-C-C, prebuilt ca-ca-cp
   240      241      321         1       119.860      4.016640E+02     ; C-C-H, prebuilt cp-ca-ha
   242      241      321         1       119.880      4.033376E+02     ; C-C-H, prebuilt ca-ca-ha
   241      242      243         1       120.020      5.573088E+02     ; C-C-C, prebuilt ca-ca-ca
   241      242      322         1       119.880      4.033376E+02     ; C-C-H, prebuilt ca-ca-ha
   243      242      322         1       119.880      4.033376E+02     ; C-C-H, prebuilt ca-ca-ha
   242      243      244         1       120.020      5.573088E+02     ; C-C-C, prebuilt ca-ca-ca
   242      243      249         1       120.330      5.380624E+02     ; C-C-C, prebuilt c-ca-ca
   244      243      249         1       120.330      5.380624E+02     ; C-C-C, prebuilt c-ca-ca
   243      244      245         1       120.020      5.573088E+02     ; C-C-C, prebuilt ca-ca-ca
   243      244      246         1       120.330      5.380624E+02     ; C-C-C, prebuilt c-ca-ca
   245      244      246         1       120.330      5.380624E+02     ; C-C-C, prebuilt c-ca-ca
   240      245      244         1       120.690      5.547984E+02     ; C-C-C, prebuilt ca-ca-cp
   240      245      323         1       119.860      4.016640E+02     ; C-C-H, prebuilt cp-ca-ha
   244      245      323         1       119.880      4.033376E+02     ; C-C-H, prebuilt ca-ca-ha
   244      246      247         1       122.600      5.748816E+02     ; C-C-O, prebuilt ca-c-o
   244      246      248         1       115.250      5.665136E+02     ; C-C-N, prebuilt ca-c-n
   247      246      248         1       123.050      6.209056E+02     ; O-C-N, prebuilt n-c-o
   246      248      249         1       127.080      5.330416E+02     ; C-N-C, prebuilt c-n-c
   246      248      251         1       123.710      5.338784E+02     ; C-N-C, prebuilt c-n-ca
   249      248      251         1       123.710      5.338784E+02     ; C-N-C, prebuilt c-n-ca
   243      249      248         1       115.250      5.665136E+02     ; C-C-N, prebuilt ca-c-n
   243      249      250         1       122.600      5.748816E+02     ; C-C-O, prebuilt ca-c-o
   248      249      250         1       123.050      6.209056E+02     ; N-C-O, prebuilt n-c-o
   248      251      252         1       120.190      5.681872E+02     ; N-C-C, prebuilt ca-ca-n
   248      251      256         1       120.190      5.681872E+02     ; N-C-C, prebuilt ca-ca-n
   252      251      256         1       120.020      5.573088E+02     ; C-C-C, prebuilt ca-ca-ca
   251      252      253         1       120.020      5.573088E+02     ; C-C-C, prebuilt ca-ca-ca
   251      252      324         1       119.880      4.033376E+02     ; C-C-H, prebuilt ca-ca-ha
   253      252      324         1       119.880      4.033376E+02     ; C-C-H, prebuilt ca-ca-ha
   252      253      254         1       120.020      5.573088E+02     ; C-C-C, prebuilt ca-ca-ca
   252      253      325         1       119.880      4.033376E+02     ; C-C-H, prebuilt ca-ca-ha
   254      253      325         1       119.880      4.033376E+02     ; C-C-H, prebuilt ca-ca-ha
   253      254      255         1       120.020      5.573088E+02     ; C-C-C, prebuilt ca-ca-ca
   253      254      257         1       120.190      5.681872E+02     ; C-C-N, prebuilt ca-ca-n
   255      254      257         1       120.190      5.681872E+02     ; C-C-N, prebuilt ca-ca-n
   254      255      256         1       120.020      5.573088E+02     ; C-C-C, prebuilt ca-ca-ca
   254      255      326         1       119.880      4.033376E+02     ; C-C-H, prebuilt ca-ca-ha
   256      255      326         1       119.880      4.033376E+02     ; C-C-H, prebuilt ca-ca-ha
   251      256      255         1       120.020      5.573088E+02     ; C-C-C, prebuilt ca-ca-ca
   251      256      327         1       119.880      4.033376E+02     ; C-C-H, prebuilt ca-ca-ha
   255      256      327         1       119.880      4.033376E+02     ; C-C-H, prebuilt ca-ca-ha
   254      257      258         1       123.710      5.338784E+02     ; C-N-C, prebuilt c-n-ca
   254      257      328         1       116.000      3.983168E+02     ; C-N-H, prebuilt ca-n-hn
   258      257      328         1       117.550      4.041744E+02     ; C-N-H, prebuilt c-n-hn
   257      258      259         1       123.050      6.209056E+02     ; N-C-O, prebuilt n-c-o
   257      258      260         1       115.250      5.665136E+02     ; N-C-C, prebuilt ca-c-n
   259      258      260         1       122.600      5.748816E+02     ; O-C-C, prebuilt ca-c-o
   258      260      261         1       120.330      5.380624E+02     ; C-C-C, prebuilt c-ca-ca
   258      260      265         1       120.330      5.380624E+02     ; C-C-C, prebuilt c-ca-ca
   261      260      265         1       120.020      5.573088E+02     ; C-C-C, prebuilt ca-ca-ca
   260      261      262         1       120.020      5.573088E+02     ; C-C-C, prebuilt ca-ca-ca
   260      261      329         1       119.880      4.033376E+02     ; C-C-H, prebuilt ca-ca-ha
   262      261      329         1       119.880      4.033376E+02     ; C-C-H, prebuilt ca-ca-ha
   261      262      263         1       120.020      5.573088E+02     ; C-C-C, prebuilt ca-ca-ca
   261      262      330         1       119.880      4.033376E+02     ; C-C-H, prebuilt ca-ca-ha
   263      262      330         1       119.880      4.033376E+02     ; C-C-H, prebuilt ca-ca-ha
   262      263      264         1       120.020      5.573088E+02     ; C-C-C, prebuilt ca-ca-ca
   262      263      320         1       120.770      5.313680E+02     ; C-C-C, prebuilt c3-ca-ca
   264      263      320         1       120.770      5.313680E+02     ; C-C-C, prebuilt c3-ca-ca
   263      264      265         1       120.020      5.573088E+02     ; C-C-C, prebuilt ca-ca-ca
   263      264      331         1       119.880      4.033376E+02     ; C-C-H, prebuilt ca-ca-ha
   265      264      331         1       119.880      4.033376E+02     ; C-C-H, prebuilt ca-ca-ha
   260      265      264         1       120.020      5.573088E+02     ; C-C-C, prebuilt ca-ca-ca
   260      265      266         1       120.190      5.681872E+02     ; C-C-N, prebuilt ca-ca-n
   264      265      266         1       120.190      5.681872E+02     ; C-C-N, prebuilt ca-ca-n
   265      266      267         1       123.710      5.338784E+02     ; C-N-C, prebuilt c-n-ca
   265      266      271         1       123.710      5.338784E+02     ; C-N-C, prebuilt c-n-ca
   267      266      271         1       127.080      5.330416E+02     ; C-N-C, prebuilt c-n-c
   266      267      268         1       123.050      6.209056E+02     ; N-C-O, prebuilt n-c-o
   266      267      269         1       115.250      5.665136E+02     ; N-C-C, prebuilt ca-c-n
   268      267      269         1       122.600      5.748816E+02     ; O-C-C, prebuilt ca-c-o
   267      269      270         1       120.330      5.380624E+02     ; C-C-C, prebuilt c-ca-ca
   267      269      276         1       120.330      5.380624E+02     ; C-C-C, prebuilt c-ca-ca
   270      269      276         1       120.020      5.573088E+02     ; C-C-C, prebuilt ca-ca-ca
   269      270      271         1       120.330      5.380624E+02     ; C-C-C, prebuilt c-ca-ca
   269      270      273         1       120.020      5.573088E+02     ; C-C-C, prebuilt ca-ca-ca
   271      270      273         1       120.330      5.380624E+02     ; C-C-C, prebuilt c-ca-ca
   266      271      270         1       115.250      5.665136E+02     ; N-C-C, prebuilt ca-c-n
   266      271      272         1       123.050      6.209056E+02     ; N-C-O, prebuilt n-c-o
   270      271      272         1       122.600      5.748816E+02     ; C-C-O, prebuilt ca-c-o
   270      273      274         1       120.020      5.573088E+02     ; C-C-C, prebuilt ca-ca-ca
   270      273      332         1       119.880      4.033376E+02     ; C-C-H, prebuilt ca-ca-ha
   274      273      332         1       119.880      4.033376E+02     ; C-C-H, prebuilt ca-ca-ha
   273      274      275         1       120.020      5.573088E+02     ; C-C-C, prebuilt ca-ca-ca
   273      274      277         1       120.330      5.380624E+02     ; C-C-C, prebuilt c-ca-ca
   275      274      277         1       120.330      5.380624E+02     ; C-C-C, prebuilt c-ca-ca
   274      275      276         1       120.020      5.573088E+02     ; C-C-C, prebuilt ca-ca-ca
   274      275      333         1       119.880      4.033376E+02     ; C-C-H, prebuilt ca-ca-ha
   276      275      333         1       119.880      4.033376E+02     ; C-C-H, prebuilt ca-ca-ha
   269      276      275         1       120.020      5.573088E+02     ; C-C-C, prebuilt ca-ca-ca
   269      276      334         1       119.880      4.033376E+02     ; C-C-H, prebuilt ca-ca-ha
   275      276      334         1       119.880      4.033376E+02     ; C-C-H, prebuilt ca-ca-ha
   274      277      278         1       122.600      5.748816E+02     ; C-C-O, prebuilt ca-c-o
   274      277      279         1       115.250      5.665136E+02     ; C-C-N, prebuilt ca-c-n
   278      277      279         1       123.050      6.209056E+02     ; O-C-N, prebuilt n-c-o
   277      279      280         1       123.710      5.338784E+02     ; C-N-C, prebuilt c-n-ca
   277      279      335         1       117.550      4.041744E+02     ; C-N-H, prebuilt c-n-hn
   280      279      335         1       116.000      3.983168E+02     ; C-N-H, prebuilt ca-n-hn
   279      280      281         1       120.190      5.681872E+02     ; N-C-C, prebuilt ca-ca-n
   279      280      285         1       120.190      5.681872E+02     ; N-C-C, prebuilt ca-ca-n
   281      280      285         1       120.020      5.573088E+02     ; C-C-C, prebuilt ca-ca-ca
   280      281      282         1       120.020      5.573088E+02     ; C-C-C, prebuilt ca-ca-ca
   280      281      336         1       119.880      4.033376E+02     ; C-C-H, prebuilt ca-ca-ha
   282      281      336         1       119.880      4.033376E+02     ; C-C-H, prebuilt ca-ca-ha
   281      282      283         1       120.020      5.573088E+02     ; C-C-C, prebuilt ca-ca-ca
   281      282      337         1       119.880      4.033376E+02     ; C-C-H, prebuilt ca-ca-ha
   283      282      337         1       119.880      4.033376E+02     ; C-C-H, prebuilt ca-ca-ha
   282      283      284         1       120.020      5.573088E+02     ; C-C-C, prebuilt ca-ca-ca
   282      283      286         1       119.200      5.824128E+02     ; C-C-O, prebuilt ca-ca-os
   284      283      286         1       119.200      5.824128E+02     ; C-C-O, prebuilt ca-ca-os
   283      284      285         1       120.020      5.573088E+02     ; C-C-C, prebuilt ca-ca-ca
   283      284      338         1       119.880      4.033376E+02     ; C-C-H, prebuilt ca-ca-ha
   285      284      338         1       119.880      4.033376E+02     ; C-C-H, prebuilt ca-ca-ha
   280      285      284         1       120.020      5.573088E+02     ; C-C-C, prebuilt ca-ca-ca
   280      285      339         1       119.880      4.033376E+02     ; C-C-H, prebuilt ca-ca-ha
   284      285      339         1       119.880      4.033376E+02     ; C-C-H, prebuilt ca-ca-ha
   283      286      287         1       119.890      5.313680E+02     ; C-O-C, prebuilt ca-os-ca
   286      287      288         1       119.200      5.824128E+02     ; O-C-C, prebuilt ca-ca-os
   286      287      292         1       119.200      5.824128E+02     ; O-C-C, prebuilt ca-ca-os
   288      287      292         1       120.020      5.573088E+02     ; C-C-C, prebuilt ca-ca-ca
   287      288      289         1       120.020      5.573088E+02     ; C-C-C, prebuilt ca-ca-ca
   287      288      340         1       119.880      4.033376E+02     ; C-C-H, prebuilt ca-ca-ha
   289      288      340         1       119.880      4.033376E+02     ; C-C-H, prebuilt ca-ca-ha
   288      289      290         1       120.020      5.573088E+02     ; C-C-C, prebuilt ca-ca-ca
   288      289      341         1       119.880      4.033376E+02     ; C-C-H, prebuilt ca-ca-ha
   290      289      341         1       119.880      4.033376E+02     ; C-C-H, prebuilt ca-ca-ha
   289      290      291         1       120.020      5.573088E+02     ; C-C-C, prebuilt ca-ca-ca
   289      290      342         1       119.880      4.033376E+02     ; C-C-H, prebuilt ca-ca-ha
   291      290      342         1       119.880      4.033376E+02     ; C-C-H, prebuilt ca-ca-ha
   290      291      292         1       120.020      5.573088E+02     ; C-C-C, prebuilt ca-ca-ca
   290      291      343         1       119.880      4.033376E+02     ; C-C-H, prebuilt ca-ca-ha
   292      291      343         1       119.880      4.033376E+02     ; C-C-H, prebuilt ca-ca-ha
   287      292      291         1       120.020      5.573088E+02     ; C-C-C, prebuilt ca-ca-ca
   287      292      293         1       119.200      5.824128E+02     ; C-C-O, prebuilt ca-ca-os
   291      292      293         1       119.200      5.824128E+02     ; C-C-O, prebuilt ca-ca-os
   292      293      294         1       119.890      5.313680E+02     ; C-O-C, prebuilt ca-os-ca
   293      294      295         1       119.200      5.824128E+02     ; O-C-C, prebuilt ca-ca-os
   293      294      299         1       119.200      5.824128E+02     ; O-C-C, prebuilt ca-ca-os
   295      294      299         1       120.020      5.573088E+02     ; C-C-C, prebuilt ca-ca-ca
   294      295      296         1       120.020      5.573088E+02     ; C-C-C, prebuilt ca-ca-ca
   294      295      344         1       119.880      4.033376E+02     ; C-C-H, prebuilt ca-ca-ha
   296      295      344         1       119.880      4.033376E+02     ; C-C-H, prebuilt ca-ca-ha
   295      296      297         1       120.020      5.573088E+02     ; C-C-C, prebuilt ca-ca-ca
   295      296      345         1       119.880      4.033376E+02     ; C-C-H, prebuilt ca-ca-ha
   297      296      345         1       119.880      4.033376E+02     ; C-C-H, prebuilt ca-ca-ha
   296      297      298         1       120.020      5.573088E+02     ; C-C-C, prebuilt ca-ca-ca
   296      297      300         1       120.190      5.681872E+02     ; C-C-N, prebuilt ca-ca-n
   298      297      300         1       120.190      5.681872E+02     ; C-C-N, prebuilt ca-ca-n
   297      298      299         1       120.020      5.573088E+02     ; C-C-C, prebuilt ca-ca-ca
   297      298      346         1       119.880      4.033376E+02     ; C-C-H, prebuilt ca-ca-ha
   299      298      346         1       119.880      4.033376E+02     ; C-C-H, prebuilt ca-ca-ha
   294      299      298         1       120.020      5.573088E+02     ; C-C-C, prebuilt ca-ca-ca
   294      299      347         1       119.880      4.033376E+02     ; C-C-H, prebuilt ca-ca-ha
   298      299      347         1       119.880      4.033376E+02     ; C-C-H, prebuilt ca-ca-ha
   297      300      301         1       123.710      5.338784E+02     ; C-N-C, prebuilt c-n-ca
   297      300      348         1       116.000      3.983168E+02     ; C-N-H, prebuilt ca-n-hn
   301      300      348         1       117.550      4.041744E+02     ; C-N-H, prebuilt c-n-hn
   300      301      302         1       123.050      6.209056E+02     ; N-C-O, prebuilt n-c-o
   300      301      303         1       115.250      5.665136E+02     ; N-C-C, prebuilt ca-c-n
   302      301      303         1       122.600      5.748816E+02     ; O-C-C, prebuilt ca-c-o
   301      303      304         1       120.330      5.380624E+02     ; C-C-C, prebuilt c-ca-ca
   301      303      308         1       120.330      5.380624E+02     ; C-C-C, prebuilt c-ca-ca
   304      303      308         1       120.020      5.573088E+02     ; C-C-C, prebuilt ca-ca-ca
   303      304      305         1       120.020      5.573088E+02     ; C-C-C, prebuilt ca-ca-ca
   303      304      349         1       119.880      4.033376E+02     ; C-C-H, prebuilt ca-ca-ha
   305      304      349         1       119.880      4.033376E+02     ; C-C-H, prebuilt ca-ca-ha
   304      305      306         1       120.020      5.573088E+02     ; C-C-C, prebuilt ca-ca-ca
   304      305      350         1       119.880      4.033376E+02     ; C-C-H, prebuilt ca-ca-ha
   306      305      350         1       119.880      4.033376E+02     ; C-C-H, prebuilt ca-ca-ha
   305      306      307         1       120.020      5.573088E+02     ; C-C-C, prebuilt ca-ca-ca
   305      306      309         1       120.190      5.681872E+02     ; C-C-N, prebuilt ca-ca-n
   307      306      309         1       120.190      5.681872E+02     ; C-C-N, prebuilt ca-ca-n
   306      307      308         1       120.020      5.573088E+02     ; C-C-C, prebuilt ca-ca-ca
   306      307      351         1       119.880      4.033376E+02     ; C-C-H, prebuilt ca-ca-ha
   308      307      351         1       119.880      4.033376E+02     ; C-C-H, prebuilt ca-ca-ha
   303      308      307         1       120.020      5.573088E+02     ; C-C-C, prebuilt ca-ca-ca
   303      308      352         1       119.880      4.033376E+02     ; C-C-H, prebuilt ca-ca-ha
   307      308      352         1       119.880      4.033376E+02     ; C-C-H, prebuilt ca-ca-ha
   306      309      310         1       123.710      5.338784E+02     ; C-N-C, prebuilt c-n-ca
   306      309      314         1       123.710      5.338784E+02     ; C-N-C, prebuilt c-n-ca
   310      309      314         1       127.080      5.330416E+02     ; C-N-C, prebuilt c-n-c
   309      310      311         1       123.050      6.209056E+02     ; N-C-O, prebuilt n-c-o
   309      310      312         1       115.250      5.665136E+02     ; N-C-C, prebuilt ca-c-n
   311      310      312         1       122.600      5.748816E+02     ; O-C-C, prebuilt ca-c-o
   310      312      313         1       120.330      5.380624E+02     ; C-C-C, prebuilt c-ca-ca
   310      312      319         1       120.330      5.380624E+02     ; C-C-C, prebuilt c-ca-ca
   313      312      319         1       120.020      5.573088E+02     ; C-C-C, prebuilt ca-ca-ca
   312      313      314         1       120.330      5.380624E+02     ; C-C-C, prebuilt c-ca-ca
   312      313      316         1       120.020      5.573088E+02     ; C-C-C, prebuilt ca-ca-ca
   314      313      316         1       120.330      5.380624E+02     ; C-C-C, prebuilt c-ca-ca
   309      314      313         1       115.250      5.665136E+02     ; N-C-C, prebuilt ca-c-n
   309      314      315         1       123.050      6.209056E+02     ; N-C-O, prebuilt n-c-o
   313      314      315         1       122.600      5.748816E+02     ; C-C-O, prebuilt ca-c-o
   313      316      317         1       120.690      5.547984E+02     ; C-C-C, prebuilt ca-ca-cp
   313      316      353         1       119.880      4.033376E+02     ; C-C-H, prebuilt ca-ca-ha
   317      316      353         1       119.860      4.016640E+02     ; C-C-H, prebuilt cp-ca-ha
   316      317      318         1       118.380      5.581456E+02     ; C-C-C, prebuilt ca-cp-ca
   316      317      359         1       121.110      5.355520E+02     ; C-C-C, prebuilt ca-cp-cp
   318      317      359         1       121.110      5.355520E+02     ; C-C-C, prebuilt ca-cp-cp
   317      318      319         1       120.690      5.547984E+02     ; C-C-C, prebuilt ca-ca-cp
   317      318      354         1       119.860      4.016640E+02     ; C-C-H, prebuilt cp-ca-ha
   319      318      354         1       119.880      4.033376E+02     ; C-C-H, prebuilt ca-ca-ha
   312      319      318         1       120.020      5.573088E+02     ; C-C-C, prebuilt ca-ca-ca
   312      319      355         1       119.880      4.033376E+02     ; C-C-H, prebuilt ca-ca-ha
   318      319      355         1       119.880      4.033376E+02     ; C-C-H, prebuilt ca-ca-ha
   263      320      356         1       110.470      3.916224E+02     ; C-C-H, prebuilt ca-c3-hc
   263      320      357         1       110.470      3.916224E+02     ; C-C-H, prebuilt ca-c3-hc
   263      320      358         1       110.470      3.916224E+02     ; C-C-H, prebuilt ca-c3-hc
   356      320      357         1       107.580      3.296992E+02     ; H-C-H, prebuilt hc-c3-hc
   356      320      358         1       107.580      3.296992E+02     ; H-C-H, prebuilt hc-c3-hc
   357      320      358         1       107.580      3.296992E+02     ; H-C-H, prebuilt hc-c3-hc
   317      359      360         1       121.110      5.355520E+02     ; C-C-C, prebuilt ca-cp-cp
   317      359      364         1       121.110      5.355520E+02     ; C-C-C, prebuilt ca-cp-cp
   360      359      364         1       118.380      5.581456E+02     ; C-C-C, prebuilt ca-cp-ca
   359      360      361         1       120.690      5.547984E+02     ; C-C-C, prebuilt ca-ca-cp
   359      360      440         1       119.860      4.016640E+02     ; C-C-H, prebuilt cp-ca-ha
   361      360      440         1       119.880      4.033376E+02     ; C-C-H, prebuilt ca-ca-ha
   360      361      362         1       120.020      5.573088E+02     ; C-C-C, prebuilt ca-ca-ca
   360      361      441         1       119.880      4.033376E+02     ; C-C-H, prebuilt ca-ca-ha
   362      361      441         1       119.880      4.033376E+02     ; C-C-H, prebuilt ca-ca-ha
   361      362      363         1       120.020      5.573088E+02     ; C-C-C, prebuilt ca-ca-ca
   361      362      368         1       120.330      5.380624E+02     ; C-C-C, prebuilt c-ca-ca
   363      362      368         1       120.330      5.380624E+02     ; C-C-C, prebuilt c-ca-ca
   362      363      364         1       120.020      5.573088E+02     ; C-C-C, prebuilt ca-ca-ca
   362      363      365         1       120.330      5.380624E+02     ; C-C-C, prebuilt c-ca-ca
   364      363      365         1       120.330      5.380624E+02     ; C-C-C, prebuilt c-ca-ca
   359      364      363         1       120.690      5.547984E+02     ; C-C-C, prebuilt ca-ca-cp
   359      364      442         1       119.860      4.016640E+02     ; C-C-H, prebuilt cp-ca-ha
   363      364      442         1       119.880      4.033376E+02     ; C-C-H, prebuilt ca-ca-ha
   363      365      366         1       122.600      5.748816E+02     ; C-C-O, prebuilt ca-c-o
   363      365      367         1       115.250      5.665136E+02     ; C-C-N, prebuilt ca-c-n
   366      365      367         1       123.050      6.209056E+02     ; O-C-N, prebuilt n-c-o
   365      367      368         1       127.080      5.330416E+02     ; C-N-C, prebuilt c-n-c
   365      367      370         1       123.710      5.338784E+02     ; C-N-C, prebuilt c-n-ca
   368      367      370         1       123.710      5.338784E+02     ; C-N-C, prebuilt c-n-ca
   362      368      367         1       115.250      5.665136E+02     ; C-C-N, prebuilt ca-c-n
   362      368      369         1       122.600      5.748816E+02     ; C-C-O, prebuilt ca-c-o
   367      368      369         1       123.050      6.209056E+02     ; N-C-O, prebuilt n-c-o
   367      370      371         1       120.190      5.681872E+02     ; N-C-C, prebuilt ca-ca-n
   367      370      375         1       120.190      5.681872E+02     ; N-C-C, prebuilt ca-ca-n
   371      370      375         1       120.020      5.573088E+02     ; C-C-C, prebuilt ca-ca-ca
   370      371      372         1       120.020      5.573088E+02     ; C-C-C, prebuilt ca-ca-ca
   370      371      443         1       119.880      4.033376E+02     ; C-C-H, prebuilt ca-ca-ha
   372      371      443         1       119.880      4.033376E+02     ; C-C-H, prebuilt ca-ca-ha
   371      372      373         1       120.020      5.573088E+02     ; C-C-C, prebuilt ca-ca-ca
   371      372      444         1       119.880      4.033376E+02     ; C-C-H, prebuilt ca-ca-ha
   373      372      444         1       119.880      4.033376E+02     ; C-C-H, prebuilt ca-ca-ha
   372      373      374         1       120.020      5.573088E+02     ; C-C-C, prebuilt ca-ca-ca
   372      373      376         1       120.190      5.681872E+02     ; C-C-N, prebuilt ca-ca-n
   374      373      376         1       120.190      5.681872E+02     ; C-C-N, prebuilt ca-ca-n
   373      374      375         1       120.020      5.573088E+02     ; C-C-C, prebuilt ca-ca-ca
   373      374      445         1       119.880      4.033376E+02     ; C-C-H, prebuilt ca-ca-ha
   375      374      445         1       119.880      4.033376E+02     ; C-C-H, prebuilt ca-ca-ha
   370      375      374         1       120.020      5.573088E+02     ; C-C-C, prebuilt ca-ca-ca
   370      375      446         1       119.880      4.033376E+02     ; C-C-H, prebuilt ca-ca-ha
   374      375      446         1       119.880      4.033376E+02     ; C-C-H, prebuilt ca-ca-ha
   373      376      377         1       123.710      5.338784E+02     ; C-N-C, prebuilt c-n-ca
   373      376      447         1       116.000      3.983168E+02     ; C-N-H, prebuilt ca-n-hn
   377      376      447         1       117.550      4.041744E+02     ; C-N-H, prebuilt c-n-hn
   376      377      378         1       123.050      6.209056E+02     ; N-C-O, prebuilt n-c-o
   376      377      379         1       115.250      5.665136E+02     ; N-C-C, prebuilt ca-c-n
   378      377      379         1       122.600      5.748816E+02     ; O-C-C, prebuilt ca-c-o
   377      379      380         1       120.330      5.380624E+02     ; C-C-C, prebuilt c-ca-ca
   377      379      384         1       120.330      5.380624E+02     ; C-C-C, prebuilt c-ca-ca
   380      379      384         1       120.020      5.573088E+02     ; C-C-C, prebuilt ca-ca-ca
   379      380      381         1       120.020      5.573088E+02     ; C-C-C, prebuilt ca-ca-ca
   379      380      448         1       119.880      4.033376E+02     ; C-C-H, prebuilt ca-ca-ha
   381      380      448         1       119.880      4.033376E+02     ; C-C-H, prebuilt ca-ca-ha
   380      381      382         1       120.020      5.573088E+02     ; C-C-C, prebuilt ca-ca-ca
   380      381      449         1       119.880      4.033376E+02     ; C-C-H, prebuilt ca-ca-ha
   382      381      449         1       119.880      4.033376E+02     ; C-C-H, prebuilt ca-ca-ha
   381      382      383         1       120.020      5.573088E+02     ; C-C-C, prebuilt ca-ca-ca
   381      382      439         1       120.770      5.313680E+02     ; C-C-C, prebuilt c3-ca-ca
   383      382      439         1       120.770      5.313680E+02     ; C-C-C, prebuilt c3-ca-ca
   382      383      384         1       120.020      5.573088E+02     ; C-C-C, prebuilt ca-ca-ca
   382      383      450         1       119.880      4.033376E+02     ; C-C-H, prebuilt ca-ca-ha
   384      383      450         1       119.880      4.033376E+02     ; C-C-H, prebuilt ca-ca-ha
   379      384      383         1       120.020      5.573088E+02     ; C-C-C, prebuilt ca-ca-ca
   379      384      385         1       120.190      5.681872E+02     ; C-C-N, prebuilt ca-ca-n
   383      384      385         1       120.190      5.681872E+02     ; C-C-N, prebuilt ca-ca-n
   384      385      386         1       123.710      5.338784E+02     ; C-N-C, prebuilt c-n-ca
   384      385      390         1       123.710      5.338784E+02     ; C-N-C, prebuilt c-n-ca
   386      385      390         1       127.080      5.330416E+02     ; C-N-C, prebuilt c-n-c
   385      386      387         1       123.050      6.209056E+02     ; N-C-O, prebuilt n-c-o
   385      386      388         1       115.250      5.665136E+02     ; N-C-C, prebuilt ca-c-n
   387      386      388         1       122.600      5.748816E+02     ; O-C-C, prebuilt ca-c-o
   386      388      389         1       120.330      5.380624E+02     ; C-C-C, prebuilt c-ca-ca
   386      388      395         1       120.330      5.380624E+02     ; C-C-C, prebuilt c-ca-ca
   389      388      395         1       120.020      5.573088E+02     ; C-C-C, prebuilt ca-ca-ca
   388      389      390         1       120.330      5.380624E+02     ; C-C-C, prebuilt c-ca-ca
   388      389      392         1       120.020      5.573088E+02     ; C-C-C, prebuilt ca-ca-ca
   390      389      392         1       120.330      5.380624E+02     ; C-C-C, prebuilt c-ca-ca
   385      390      389         1       115.250      5.665136E+02     ; N-C-C, prebuilt ca-c-n
   385      390      391         1       123.050      6.209056E+02     ; N-C-O, prebuilt n-c-o
   389      390      391         1       122.600      5.748816E+02     ; C-C-O, prebuilt ca-c-o
   389      392      393         1       120.020      5.573088E+02     ; C-C-C, prebuilt ca-ca-ca
   389      392      451         1       119.880      4.033376E+02     ; C-C-H, prebuilt ca-ca-ha
   393      392      451         1       119.880      4.033376E+02     ; C-C-H, prebuilt ca-ca-ha
   392      393      394         1       120.020      5.573088E+02     ; C-C-C, prebuilt ca-ca-ca
   392      393      396         1       120.330      5.380624E+02     ; C-C-C, prebuilt c-ca-ca
   394      393      396         1       120.330      5.380624E+02     ; C-C-C, prebuilt c-ca-ca
   393      394      395         1       120.020      5.573088E+02     ; C-C-C, prebuilt ca-ca-ca
   393      394      452         1       119.880      4.033376E+02     ; C-C-H, prebuilt ca-ca-ha
   395      394      452         1       119.880      4.033376E+02     ; C-C-H, prebuilt ca-ca-ha
   388      395      394         1       120.020      5.573088E+02     ; C-C-C, prebuilt ca-ca-ca
   388      395      453         1       119.880      4.033376E+02     ; C-C-H, prebuilt ca-ca-ha
   394      395      453         1       119.880      4.033376E+02     ; C-C-H, prebuilt ca-ca-ha
   393      396      397         1       122.600      5.748816E+02     ; C-C-O, prebuilt ca-c-o
   393      396      398         1       115.250      5.665136E+02     ; C-C-N, prebuilt ca-c-n
   397      396      398         1       123.050      6.209056E+02     ; O-C-N, prebuilt n-c-o
   396      398      399         1       123.710      5.338784E+02     ; C-N-C, prebuilt c-n-ca
   396      398      454         1       117.550      4.041744E+02     ; C-N-H, prebuilt c-n-hn
   399      398      454         1       116.000      3.983168E+02     ; C-N-H, prebuilt ca-n-hn
   398      399      400         1       120.190      5.681872E+02     ; N-C-C, prebuilt ca-ca-n
   398      399      404         1       120.190      5.681872E+02     ; N-C-C, prebuilt ca-ca-n
   400      399      404         1       120.020      5.573088E+02     ; C-C-C, prebuilt ca-ca-ca
   399      400      401         1       120.020      5.573088E+02     ; C-C-C, prebuilt ca-ca-ca
   399      400      455         1       119.880      4.033376E+02     ; C-C-H, prebuilt ca-ca-ha
   401      400      455         1       119.880      4.033376E+02     ; C-C-H, prebuilt ca-ca-ha
   400      401      402         1       120.020      5.573088E+02     ; C-C-C, prebuilt ca-ca-ca
   400      401      456         1       119.880      4.033376E+02     ; C-C-H, prebuilt ca-ca-ha
   402      401      456         1       119.880      4.033376E+02     ; C-C-H, prebuilt ca-ca-ha
   401      402      403         1       120.020      5.573088E+02     ; C-C-C, prebuilt ca-ca-ca
   401      402      405         1       119.200      5.824128E+02     ; C-C-O, prebuilt ca-ca-os
   403      402      405         1       119.200      5.824128E+02     ; C-C-O, prebuilt ca-ca-os
   402      403      404         1       120.020      5.573088E+02     ; C-C-C, prebuilt ca-ca-ca
   402      403      457         1       119.880      4.033376E+02     ; C-C-H, prebuilt ca-ca-ha
   404      403      457         1       119.880      4.033376E+02     ; C-C-H, prebuilt ca-ca-ha
   399      404      403         1       120.020      5.573088E+02     ; C-C-C, prebuilt ca-ca-ca
   399      404      458         1       119.880      4.033376E+02     ; C-C-H, prebuilt ca-ca-ha
   403      404      458         1       119.880      4.033376E+02     ; C-C-H, prebuilt ca-ca-ha
   402      405      406         1       119.890      5.313680E+02     ; C-O-C, prebuilt ca-os-ca
   405      406      407         1       119.200      5.824128E+02     ; O-C-C, prebuilt ca-ca-os
   405      406      411         1       119.200      5.824128E+02     ; O-C-C, prebuilt ca-ca-os
   407      406      411         1       120.020      5.573088E+02     ; C-C-C, prebuilt ca-ca-ca
   406      407      408         1       120.020      5.573088E+02     ; C-C-C, prebuilt ca-ca-ca
   406      407      459         1       119.880      4.033376E+02     ; C-C-H, prebuilt ca-ca-ha
   408      407      459         1       119.880      4.033376E+02     ; C-C-H, prebuilt ca-ca-ha
   407      408      409         1       120.020      5.573088E+02     ; C-C-C, prebuilt ca-ca-ca
   407      408      460         1       119.880      4.033376E+02     ; C-C-H, prebuilt ca-ca-ha
   409      408      460         1       119.880      4.033376E+02     ; C-C-H, prebuilt ca-ca-ha
   408      409      410         1       120.020      5.573088E+02     ; C-C-C, prebuilt ca-ca-ca
   408      409      461         1       119.880      4.033376E+02     ; C-C-H, prebuilt ca-ca-ha
   410      409      461         1       119.880      4.033376E+02     ; C-C-H, prebuilt ca-ca-ha
   409      410      411         1       120.020      5.573088E+02     ; C-C-C, prebuilt ca-ca-ca
   409      410      462         1       119.880      4.033376E+02     ; C-C-H, prebuilt ca-ca-ha
   411      410      462         1       119.880      4.033376E+02     ; C-C-H, prebuilt ca-ca-ha
   406      411      410         1       120.020      5.573088E+02     ; C-C-C, prebuilt ca-ca-ca
   406      411      412         1       119.200      5.824128E+02     ; C-C-O, prebuilt ca-ca-os
   410      411      412         1       119.200      5.824128E+02     ; C-C-O, prebuilt ca-ca-os
   411      412      413         1       119.890      5.313680E+02     ; C-O-C, prebuilt ca-os-ca
   412      413      414         1       119.200      5.824128E+02     ; O-C-C, prebuilt ca-ca-os
   412      413      418         1       119.200      5.824128E+02     ; O-C-C, prebuilt ca-ca-os
   414      413      418         1       120.020      5.573088E+02     ; C-C-C, prebuilt ca-ca-ca
   413      414      415         1       120.020      5.573088E+02     ; C-C-C, prebuilt ca-ca-ca
   413      414      463         1       119.880      4.033376E+02     ; C-C-H, prebuilt ca-ca-ha
   415      414      463         1       119.880      4.033376E+02     ; C-C-H, prebuilt ca-ca-ha
   414      415      416         1       120.020      5.573088E+02     ; C-C-C, prebuilt ca-ca-ca
   414      415      464         1       119.880      4.033376E+02     ; C-C-H, prebuilt ca-ca-ha
   416      415      464         1       119.880      4.033376E+02     ; C-C-H, prebuilt ca-ca-ha
   415      416      417         1       120.020      5.573088E+02     ; C-C-C, prebuilt ca-ca-ca
   415      416      419         1       120.190      5.681872E+02     ; C-C-N, prebuilt ca-ca-n
   417      416      419         1       120.190      5.681872E+02     ; C-C-N, prebuilt ca-ca-n
   416      417      418         1       120.020      5.573088E+02     ; C-C-C, prebuilt ca-ca-ca
   416      417      465         1       119.880      4.033376E+02     ; C-C-H, prebuilt ca-ca-ha
   418      417      465         1       119.880      4.033376E+02     ; C-C-H, prebuilt ca-ca-ha
   413      418      417         1       120.020      5.573088E+02     ; C-C-C, prebuilt ca-ca-ca
   413      418      466         1       119.880      4.033376E+02     ; C-C-H, prebuilt ca-ca-ha
   417      418      466         1       119.880      4.033376E+02     ; C-C-H, prebuilt ca-ca-ha
   416      419      420         1       123.710      5.338784E+02     ; C-N-C, prebuilt c-n-ca
   416      419      467         1       116.000      3.983168E+02     ; C-N-H, prebuilt ca-n-hn
   420      419      467         1       117.550      4.041744E+02     ; C-N-H, prebuilt c-n-hn
   419      420      421         1       123.050      6.209056E+02     ; N-C-O, prebuilt n-c-o
   419      420      422         1       115.250      5.665136E+02     ; N-C-C, prebuilt ca-c-n
   421      420      422         1       122.600      5.748816E+02     ; O-C-C, prebuilt ca-c-o
   420      422      423         1       120.330      5.380624E+02     ; C-C-C, prebuilt c-ca-ca
   420      422      427         1       120.330      5.380624E+02     ; C-C-C, prebuilt c-ca-ca
   423      422      427         1       120.020      5.573088E+02     ; C-C-C, prebuilt ca-ca-ca
   422      423      424         1       120.020      5.573088E+02     ; C-C-C, prebuilt ca-ca-ca
   422      423      468         1       119.880      4.033376E+02     ; C-C-H, prebuilt ca-ca-ha
   424      423      468         1       119.880      4.033376E+02     ; C-C-H, prebuilt ca-ca-ha
   423      424      425         1       120.020      5.573088E+02     ; C-C-C, prebuilt ca-ca-ca
   423      424      469         1       119.880      4.033376E+02     ; C-C-H, prebuilt ca-ca-ha
   425      424      469         1       119.880      4.033376E+02     ; C-C-H, prebuilt ca-ca-ha
   424      425      426         1       120.020      5.573088E+02     ; C-C-C, prebuilt ca-ca-ca
   424      425      428         1       120.190      5.681872E+02     ; C-C-N, prebuilt ca-ca-n
   426      425      428         1       120.190      5.681872E+02     ; C-C-N, prebuilt ca-ca-n
   425      426      427         1       120.020      5.573088E+02     ; C-C-C, prebuilt ca-ca-ca
   425      426      470         1       119.880      4.033376E+02     ; C-C-H, prebuilt ca-ca-ha
   427      426      470         1       119.880      4.033376E+02     ; C-C-H, prebuilt ca-ca-ha
   422      427      426         1       120.020      5.573088E+02     ; C-C-C, prebuilt ca-ca-ca
   422      427      471         1       119.880      4.033376E+02     ; C-C-H, prebuilt ca-ca-ha
   426      427      471         1       119.880      4.033376E+02     ; C-C-H, prebuilt ca-ca-ha
   425      428      429         1       123.710      5.338784E+02     ; C-N-C, prebuilt c-n-ca
   425      428      433         1       123.710      5.338784E+02     ; C-N-C, prebuilt c-n-ca
   429      428      433         1       127.080      5.330416E+02     ; C-N-C, prebuilt c-n-c
   428      429      430         1       123.050      6.209056E+02     ; N-C-O, prebuilt n-c-o
   428      429      431         1       115.250      5.665136E+02     ; N-C-C, prebuilt ca-c-n
   430      429      431         1       122.600      5.748816E+02     ; O-C-C, prebuilt ca-c-o
   429      431      432         1       120.330      5.380624E+02     ; C-C-C, prebuilt c-ca-ca
   429      431      438         1       120.330      5.380624E+02     ; C-C-C, prebuilt c-ca-ca
   432      431      438         1       120.020      5.573088E+02     ; C-C-C, prebuilt ca-ca-ca
   431      432      433         1       120.330      5.380624E+02     ; C-C-C, prebuilt c-ca-ca
   431      432      435         1       120.020      5.573088E+02     ; C-C-C, prebuilt ca-ca-ca
   433      432      435         1       120.330      5.380624E+02     ; C-C-C, prebuilt c-ca-ca
   428      433      432         1       115.250      5.665136E+02     ; N-C-C, prebuilt ca-c-n
   428      433      434         1       123.050      6.209056E+02     ; N-C-O, prebuilt n-c-o
   432      433      434         1       122.600      5.748816E+02     ; C-C-O, prebuilt ca-c-o
   432      435      436         1       120.690      5.547984E+02     ; C-C-C, prebuilt ca-ca-cp
   432      435      472         1       119.880      4.033376E+02     ; C-C-H, prebuilt ca-ca-ha
   436      435      472         1       119.860      4.016640E+02     ; C-C-H, prebuilt cp-ca-ha
   435      436      437         1       118.380      5.581456E+02     ; C-C-C, prebuilt ca-cp-ca
   435      436      478         1       121.110      5.355520E+02     ; C-C-C, prebuilt ca-cp-cp
   437      436      478         1       121.110      5.355520E+02     ; C-C-C, prebuilt ca-cp-cp
   436      437      438         1       120.690      5.547984E+02     ; C-C-C, prebuilt ca-ca-cp
   436      437      473         1       119.860      4.016640E+02     ; C-C-H, prebuilt cp-ca-ha
   438      437      473         1       119.880      4.033376E+02     ; C-C-H, prebuilt ca-ca-ha
   431      438      437         1       120.020      5.573088E+02     ; C-C-C, prebuilt ca-ca-ca
   431      438      474         1       119.880      4.033376E+02     ; C-C-H, prebuilt ca-ca-ha
   437      438      474         1       119.880      4.033376E+02     ; C-C-H, prebuilt ca-ca-ha
   382      439      475         1       110.470      3.916224E+02     ; C-C-H, prebuilt ca-c3-hc
   382      439      476         1       110.470      3.916224E+02     ; C-C-H, prebuilt ca-c3-hc
   382      439      477         1       110.470      3.916224E+02     ; C-C-H, prebuilt ca-c3-hc
   475      439      476         1       107.580      3.296992E+02     ; H-C-H, prebuilt hc-c3-hc
   475      439      477         1       107.580      3.296992E+02     ; H-C-H, prebuilt hc-c3-hc
   476      439      477         1       107.580      3.296992E+02     ; H-C-H, prebuilt hc-c3-hc
   436      478      479         1       121.110      5.355520E+02     ; C-C-C, prebuilt ca-cp-cp
   436      478      483         1       121.110      5.355520E+02     ; C-C-C, prebuilt ca-cp-cp
   479      478      483         1       118.380      5.581456E+02     ; C-C-C, prebuilt ca-cp-ca
   478      479      480         1       120.690      5.547984E+02     ; C-C-C, prebuilt ca-ca-cp
   478      479      559         1       119.860      4.016640E+02     ; C-C-H, prebuilt cp-ca-ha
   480      479      559         1       119.880      4.033376E+02     ; C-C-H, prebuilt ca-ca-ha
   479      480      481         1       120.020      5.573088E+02     ; C-C-C, prebuilt ca-ca-ca
   479      480      560         1       119.880      4.033376E+02     ; C-C-H, prebuilt ca-ca-ha
   481      480      560         1       119.880      4.033376E+02     ; C-C-H, prebuilt ca-ca-ha
   480      481      482         1       120.020      5.573088E+02     ; C-C-C, prebuilt ca-ca-ca
   480      481      487         1       120.330      5.380624E+02     ; C-C-C, prebuilt c-ca-ca
   482      481      487         1       120.330      5.380624E+02     ; C-C-C, prebuilt c-ca-ca
   481      482      483         1       120.020      5.573088E+02     ; C-C-C, prebuilt ca-ca-ca
   481      482      484         1       120.330      5.380624E+02     ; C-C-C, prebuilt c-ca-ca
   483      482      484         1       120.330      5.380624E+02     ; C-C-C, prebuilt c-ca-ca
   478      483      482         1       120.690      5.547984E+02     ; C-C-C, prebuilt ca-ca-cp
   478      483      561         1       119.860      4.016640E+02     ; C-C-H, prebuilt cp-ca-ha
   482      483      561         1       119.880      4.033376E+02     ; C-C-H, prebuilt ca-ca-ha
   482      484      485         1       122.600      5.748816E+02     ; C-C-O, prebuilt ca-c-o
   482      484      486         1       115.250      5.665136E+02     ; C-C-N, prebuilt ca-c-n
   485      484      486         1       123.050      6.209056E+02     ; O-C-N, prebuilt n-c-o
   484      486      487         1       127.080      5.330416E+02     ; C-N-C, prebuilt c-n-c
   484      486      489         1       123.710      5.338784E+02     ; C-N-C, prebuilt c-n-ca
   487      486      489         1       123.710      5.338784E+02     ; C-N-C, prebuilt c-n-ca
   481      487      486         1       115.250      5.665136E+02     ; C-C-N, prebuilt ca-c-n
   481      487      488         1       122.600      5.748816E+02     ; C-C-O, prebuilt ca-c-o
   486      487      488         1       123.050      6.209056E+02     ; N-C-O, prebuilt n-c-o
   486      489      490         1       120.190      5.681872E+02     ; N-C-C, prebuilt ca-ca-n
   486      489      494         1       120.190      5.681872E+02     ; N-C-C, prebuilt ca-ca-n
   490      489      494         1       120.020      5.573088E+02     ; C-C-C, prebuilt ca-ca-ca
   489      490      491         1       120.020      5.573088E+02     ; C-C-C, prebuilt ca-ca-ca
   489      490      562         1       119.880      4.033376E+02     ; C-C-H, prebuilt ca-ca-ha
   491      490      562         1       119.880      4.033376E+02     ; C-C-H, prebuilt ca-ca-ha
   490      491      492         1       120.020      5.573088E+02     ; C-C-C, prebuilt ca-ca-ca
   490      491      563         1       119.880      4.033376E+02     ; C-C-H, prebuilt ca-ca-ha
   492      491      563         1       119.880      4.033376E+02     ; C-C-H, prebuilt ca-ca-ha
   491      492      493         1       120.020      5.573088E+02     ; C-C-C, prebuilt ca-ca-ca
   491      492      495         1       120.190      5.681872E+02     ; C-C-N, prebuilt ca-ca-n
   493      492      495         1       120.190      5.681872E+02     ; C-C-N, prebuilt ca-ca-n
   492      493      494         1       120.020      5.573088E+02     ; C-C-C, prebuilt ca-ca-ca
   492      493      564         1       119.880      4.033376E+02     ; C-C-H, prebuilt ca-ca-ha
   494      493      564         1       119.880      4.033376E+02     ; C-C-H, prebuilt ca-ca-ha
   489      494      493         1       120.020      5.573088E+02     ; C-C-C, prebuilt ca-ca-ca
   489      494      565         1       119.880      4.033376E+02     ; C-C-H, prebuilt ca-ca-ha
   493      494      565         1       119.880      4.033376E+02     ; C-C-H, prebuilt ca-ca-ha
   492      495      496         1       123.710      5.338784E+02     ; C-N-C, prebuilt c-n-ca
   492      495      566         1       116.000      3.983168E+02     ; C-N-H, prebuilt ca-n-hn
   496      495      566         1       117.550      4.041744E+02     ; C-N-H, prebuilt c-n-hn
   495      496      497         1       123.050      6.209056E+02     ; N-C-O, prebuilt n-c-o
   495      496      498         1       115.250      5.665136E+02     ; N-C-C, prebuilt ca-c-n
   497      496      498         1       122.600      5.748816E+02     ; O-C-C, prebuilt ca-c-o
   496      498      499         1       120.330      5.380624E+02     ; C-C-C, prebuilt c-ca-ca
   496      498      503         1       120.330      5.380624E+02     ; C-C-C, prebuilt c-ca-ca
   499      498      503         1       120.020      5.573088E+02     ; C-C-C, prebuilt ca-ca-ca
   498      499      500         1       120.020      5.573088E+02     ; C-C-C, prebuilt ca-ca-ca
   498      499      567         1       119.880      4.033376E+02     ; C-C-H, prebuilt ca-ca-ha
   500      499      567         1       119.880      4.033376E+02     ; C-C-H, prebuilt ca-ca-ha
   499      500      501         1       120.020      5.573088E+02     ; C-C-C, prebuilt ca-ca-ca
   499      500      568         1       119.880      4.033376E+02     ; C-C-H, prebuilt ca-ca-ha
   501      500      568         1       119.880      4.033376E+02     ; C-C-H, prebuilt ca-ca-ha
   500      501      502         1       120.020      5.573088E+02     ; C-C-C, prebuilt ca-ca-ca
   500      501      558         1       120.770      5.313680E+02     ; C-C-C, prebuilt c3-ca-ca
   502      501      558         1       120.770      5.313680E+02     ; C-C-C, prebuilt c3-ca-ca
   501      502      503         1       120.020      5.573088E+02     ; C-C-C, prebuilt ca-ca-ca
   501      502      569         1       119.880      4.033376E+02     ; C-C-H, prebuilt ca-ca-ha
   503      502      569         1       119.880      4.033376E+02     ; C-C-H, prebuilt ca-ca-ha
   498      503      502         1       120.020      5.573088E+02     ; C-C-C, prebuilt ca-ca-ca
   498      503      504         1       120.190      5.681872E+02     ; C-C-N, prebuilt ca-ca-n
   502      503      504         1       120.190      5.681872E+02     ; C-C-N, prebuilt ca-ca-n
   503      504      505         1       123.710      5.338784E+02     ; C-N-C, prebuilt c-n-ca
   503      504      509         1       123.710      5.338784E+02     ; C-N-C, prebuilt c-n-ca
   505      504      509         1       127.080      5.330416E+02     ; C-N-C, prebuilt c-n-c
   504      505      506         1       123.050      6.209056E+02     ; N-C-O, prebuilt n-c-o
   504      505      507         1       115.250      5.665136E+02     ; N-C-C, prebuilt ca-c-n
   506      505      507         1       122.600      5.748816E+02     ; O-C-C, prebuilt ca-c-o
   505      507      508         1       120.330      5.380624E+02     ; C-C-C, prebuilt c-ca-ca
   505      507      514         1       120.330      5.380624E+02     ; C-C-C, prebuilt c-ca-ca
   508      507      514         1       120.020      5.573088E+02     ; C-C-C, prebuilt ca-ca-ca
   507      508      509         1       120.330      5.380624E+02     ; C-C-C, prebuilt c-ca-ca
   507      508      511         1       120.020      5.573088E+02     ; C-C-C, prebuilt ca-ca-ca
   509      508      511         1       120.330      5.380624E+02     ; C-C-C, prebuilt c-ca-ca
   504      509      508         1       115.250      5.665136E+02     ; N-C-C, prebuilt ca-c-n
   504      509      510         1       123.050      6.209056E+02     ; N-C-O, prebuilt n-c-o
   508      509      510         1       122.600      5.748816E+02     ; C-C-O, prebuilt ca-c-o
   508      511      512         1       120.020      5.573088E+02     ; C-C-C, prebuilt ca-ca-ca
   508      511      570         1       119.880      4.033376E+02     ; C-C-H, prebuilt ca-ca-ha
   512      511      570         1       119.880      4.033376E+02     ; C-C-H, prebuilt ca-ca-ha
   511      512      513         1       120.020      5.573088E+02     ; C-C-C, prebuilt ca-ca-ca
   511      512      515         1       120.330      5.380624E+02     ; C-C-C, prebuilt c-ca-ca
   513      512      515         1       120.330      5.380624E+02     ; C-C-C, prebuilt c-ca-ca
   512      513      514         1       120.020      5.573088E+02     ; C-C-C, prebuilt ca-ca-ca
   512      513      571         1       119.880      4.033376E+02     ; C-C-H, prebuilt ca-ca-ha
   514      513      571         1       119.880      4.033376E+02     ; C-C-H, prebuilt ca-ca-ha
   507      514      513         1       120.020      5.573088E+02     ; C-C-C, prebuilt ca-ca-ca
   507      514      572         1       119.880      4.033376E+02     ; C-C-H, prebuilt ca-ca-ha
   513      514      572         1       119.880      4.033376E+02     ; C-C-H, prebuilt ca-ca-ha
   512      515      516         1       122.600      5.748816E+02     ; C-C-O, prebuilt ca-c-o
   512      515      517         1       115.250      5.665136E+02     ; C-C-N, prebuilt ca-c-n
   516      515      517         1       123.050      6.209056E+02     ; O-C-N, prebuilt n-c-o
   515      517      518         1       123.710      5.338784E+02     ; C-N-C, prebuilt c-n-ca
   515      517      573         1       117.550      4.041744E+02     ; C-N-H, prebuilt c-n-hn
   518      517      573         1       116.000      3.983168E+02     ; C-N-H, prebuilt ca-n-hn
   517      518      519         1       120.190      5.681872E+02     ; N-C-C, prebuilt ca-ca-n
   517      518      523         1       120.190      5.681872E+02     ; N-C-C, prebuilt ca-ca-n
   519      518      523         1       120.020      5.573088E+02     ; C-C-C, prebuilt ca-ca-ca
   518      519      520         1       120.020      5.573088E+02     ; C-C-C, prebuilt ca-ca-ca
   518      519      574         1       119.880      4.033376E+02     ; C-C-H, prebuilt ca-ca-ha
   520      519      574         1       119.880      4.033376E+02     ; C-C-H, prebuilt ca-ca-ha
   519      520      521         1       120.020      5.573088E+02     ; C-C-C, prebuilt ca-ca-ca
   519      520      575         1       119.880      4.033376E+02     ; C-C-H, prebuilt ca-ca-ha
   521      520      575         1       119.880      4.033376E+02     ; C-C-H, prebuilt ca-ca-ha
   520      521      522         1       120.020      5.573088E+02     ; C-C-C, prebuilt ca-ca-ca
   520      521      524         1       119.200      5.824128E+02     ; C-C-O, prebuilt ca-ca-os
   522      521      524         1       119.200      5.824128E+02     ; C-C-O, prebuilt ca-ca-os
   521      522      523         1       120.020      5.573088E+02     ; C-C-C, prebuilt ca-ca-ca
   521      522      576         1       119.880      4.033376E+02     ; C-C-H, prebuilt ca-ca-ha
   523      522      576         1       119.880      4.033376E+02     ; C-C-H, prebuilt ca-ca-ha
   518      523      522         1       120.020      5.573088E+02     ; C-C-C, prebuilt ca-ca-ca
   518      523      577         1       119.880      4.033376E+02     ; C-C-H, prebuilt ca-ca-ha
   522      523      577         1       119.880      4.033376E+02     ; C-C-H, prebuilt ca-ca-ha
   521      524      525         1       119.890      5.313680E+02     ; C-O-C, prebuilt ca-os-ca
   524      525      526         1       119.200      5.824128E+02     ; O-C-C, prebuilt ca-ca-os
   524      525      530         1       119.200      5.824128E+02     ; O-C-C, prebuilt ca-ca-os
   526      525      530         1       120.020      5.573088E+02     ; C-C-C, prebuilt ca-ca-ca
   525      526      527         1       120.020      5.573088E+02     ; C-C-C, prebuilt ca-ca-ca
   525      526      578         1       119.880      4.033376E+02     ; C-C-H, prebuilt ca-ca-ha
   527      526      578         1       119.880      4.033376E+02     ; C-C-H, prebuilt ca-ca-ha
   526      527      528         1       120.020      5.573088E+02     ; C-C-C, prebuilt ca-ca-ca
   526      527      579         1       119.880      4.033376E+02     ; C-C-H, prebuilt ca-ca-ha
   528      527      579         1       119.880      4.033376E+02     ; C-C-H, prebuilt ca-ca-ha
   527      528      529         1       120.020      5.573088E+02     ; C-C-C, prebuilt ca-ca-ca
   527      528      580         1       119.880      4.033376E+02     ; C-C-H, prebuilt ca-ca-ha
   529      528      580         1       119.880      4.033376E+02     ; C-C-H, prebuilt ca-ca-ha
   528      529      530         1       120.020      5.573088E+02     ; C-C-C, prebuilt ca-ca-ca
   528      529      581         1       119.880      4.033376E+02     ; C-C-H, prebuilt ca-ca-ha
   530      529      581         1       119.880      4.033376E+02     ; C-C-H, prebuilt ca-ca-ha
   525      530      529         1       120.020      5.573088E+02     ; C-C-C, prebuilt ca-ca-ca
   525      530      531         1       119.200      5.824128E+02     ; C-C-O, prebuilt ca-ca-os
   529      530      531         1       119.200      5.824128E+02     ; C-C-O, prebuilt ca-ca-os
   530      531      532         1       119.890      5.313680E+02     ; C-O-C, prebuilt ca-os-ca
   531      532      533         1       119.200      5.824128E+02     ; O-C-C, prebuilt ca-ca-os
   531      532      537         1       119.200      5.824128E+02     ; O-C-C, prebuilt ca-ca-os
   533      532      537         1       120.020      5.573088E+02     ; C-C-C, prebuilt ca-ca-ca
   532      533      534         1       120.020      5.573088E+02     ; C-C-C, prebuilt ca-ca-ca
   532      533      582         1       119.880      4.033376E+02     ; C-C-H, prebuilt ca-ca-ha
   534      533      582         1       119.880      4.033376E+02     ; C-C-H, prebuilt ca-ca-ha
   533      534      535         1       120.020      5.573088E+02     ; C-C-C, prebuilt ca-ca-ca
   533      534      583         1       119.880      4.033376E+02     ; C-C-H, prebuilt ca-ca-ha
   535      534      583         1       119.880      4.033376E+02     ; C-C-H, prebuilt ca-ca-ha
   534      535      536         1       120.020      5.573088E+02     ; C-C-C, prebuilt ca-ca-ca
   534      535      538         1       120.190      5.681872E+02     ; C-C-N, prebuilt ca-ca-n
   536      535      538         1       120.190      5.681872E+02     ; C-C-N, prebuilt ca-ca-n
   535      536      537         1       120.020      5.573088E+02     ; C-C-C, prebuilt ca-ca-ca
   535      536      584         1       119.880      4.033376E+02     ; C-C-H, prebuilt ca-ca-ha
   537      536      584         1       119.880      4.033376E+02     ; C-C-H, prebuilt ca-ca-ha
   532      537      536         1       120.020      5.573088E+02     ; C-C-C, prebuilt ca-ca-ca
   532      537      585         1       119.880      4.033376E+02     ; C-C-H, prebuilt ca-ca-ha
   536      537      585         1       119.880      4.033376E+02     ; C-C-H, prebuilt ca-ca-ha
   535      538      539         1       123.710      5.338784E+02     ; C-N-C, prebuilt c-n-ca
   535      538      586         1       116.000      3.983168E+02     ; C-N-H, prebuilt ca-n-hn
   539      538      586         1       117.550      4.041744E+02     ; C-N-H, prebuilt c-n-hn
   538      539      540         1       123.050      6.209056E+02     ; N-C-O, prebuilt n-c-o
   538      539      541         1       115.250      5.665136E+02     ; N-C-C, prebuilt ca-c-n
   540      539      541         1       122.600      5.748816E+02     ; O-C-C, prebuilt ca-c-o
   539      541      542         1       120.330      5.380624E+02     ; C-C-C, prebuilt c-ca-ca
   539      541      546         1       120.330      5.380624E+02     ; C-C-C, prebuilt c-ca-ca
   542      541      546         1       120.020      5.573088E+02     ; C-C-C, prebuilt ca-ca-ca
   541      542      543         1       120.020      5.573088E+02     ; C-C-C, prebuilt ca-ca-ca
   541      542      587         1       119.880      4.033376E+02     ; C-C-H, prebuilt ca-ca-ha
   543      542      587         1       119.880      4.033376E+02     ; C-C-H, prebuilt ca-ca-ha
   542      543      544         1       120.020      5.573088E+02     ; C-C-C, prebuilt ca-ca-ca
   542      543      588         1       119.880      4.033376E+02     ; C-C-H, prebuilt ca-ca-ha
   544      543      588         1       119.880      4.033376E+02     ; C-C-H, prebuilt ca-ca-ha
   543      544      545         1       120.020      5.573088E+02     ; C-C-C, prebuilt ca-ca-ca
   543      544      547         1       120.190      5.681872E+02     ; C-C-N, prebuilt ca-ca-n
   545      544      547         1       120.190      5.681872E+02     ; C-C-N, prebuilt ca-ca-n
   544      545      546         1       120.020      5.573088E+02     ; C-C-C, prebuilt ca-ca-ca
   544      545      589         1       119.880      4.033376E+02     ; C-C-H, prebuilt ca-ca-ha
   546      545      589         1       119.880      4.033376E+02     ; C-C-H, prebuilt ca-ca-ha
   541      546      545         1       120.020      5.573088E+02     ; C-C-C, prebuilt ca-ca-ca
   541      546      590         1       119.880      4.033376E+02     ; C-C-H, prebuilt ca-ca-ha
   545      546      590         1       119.880      4.033376E+02     ; C-C-H, prebuilt ca-ca-ha
   544      547      548         1       123.710      5.338784E+02     ; C-N-C, prebuilt c-n-ca
   544      547      552         1       123.710      5.338784E+02     ; C-N-C, prebuilt c-n-ca
   548      547      552         1       127.080      5.330416E+02     ; C-N-C, prebuilt c-n-c
   547      548      549         1       123.050      6.209056E+02     ; N-C-O, prebuilt n-c-o
   547      548      550         1       115.250      5.665136E+02     ; N-C-C, prebuilt ca-c-n
   549      548      550         1       122.600      5.748816E+02     ; O-C-C, prebuilt ca-c-o
   548      550      551         1       120.330      5.380624E+02     ; C-C-C, prebuilt c-ca-ca
   548      550      557         1       120.330      5.380624E+02     ; C-C-C, prebuilt c-ca-ca
   551      550      557         1       120.020      5.573088E+02     ; C-C-C, prebuilt ca-ca-ca
   550      551      552         1       120.330      5.380624E+02     ; C-C-C, prebuilt c-ca-ca
   550      551      554         1       120.020      5.573088E+02     ; C-C-C, prebuilt ca-ca-ca
   552      551      554         1       120.330      5.380624E+02     ; C-C-C, prebuilt c-ca-ca
   547      552      551         1       115.250      5.665136E+02     ; N-C-C, prebuilt ca-c-n
   547      552      553         1       123.050      6.209056E+02     ; N-C-O, prebuilt n-c-o
   551      552      553         1       122.600      5.748816E+02     ; C-C-O, prebuilt ca-c-o
   551      554      555         1       120.690      5.547984E+02     ; C-C-C, prebuilt ca-ca-cp
   551      554      591         1       119.880      4.033376E+02     ; C-C-H, prebuilt ca-ca-ha
   555      554      591         1       119.860      4.016640E+02     ; C-C-H, prebuilt cp-ca-ha
   554      555      556         1       118.380      5.581456E+02     ; C-C-C, prebuilt ca-cp-ca
   554      555      597         1       121.110      5.355520E+02     ; C-C-C, prebuilt ca-cp-cp
   556      555      597         1       121.110      5.355520E+02     ; C-C-C, prebuilt ca-cp-cp
   555      556      557         1       120.690      5.547984E+02     ; C-C-C, prebuilt ca-ca-cp
   555      556      592         1       119.860      4.016640E+02     ; C-C-H, prebuilt cp-ca-ha
   557      556      592         1       119.880      4.033376E+02     ; C-C-H, prebuilt ca-ca-ha
   550      557      556         1       120.020      5.573088E+02     ; C-C-C, prebuilt ca-ca-ca
   550      557      593         1       119.880      4.033376E+02     ; C-C-H, prebuilt ca-ca-ha
   556      557      593         1       119.880      4.033376E+02     ; C-C-H, prebuilt ca-ca-ha
   501      558      594         1       110.470      3.916224E+02     ; C-C-H, prebuilt ca-c3-hc
   501      558      595         1       110.470      3.916224E+02     ; C-C-H, prebuilt ca-c3-hc
   501      558      596         1       110.470      3.916224E+02     ; C-C-H, prebuilt ca-c3-hc
   594      558      595         1       107.580      3.296992E+02     ; H-C-H, prebuilt hc-c3-hc
   594      558      596         1       107.580      3.296992E+02     ; H-C-H, prebuilt hc-c3-hc
   595      558      596         1       107.580      3.296992E+02     ; H-C-H, prebuilt hc-c3-hc
   555      597      598         1       121.110      5.355520E+02     ; C-C-C, prebuilt ca-cp-cp
   555      597      602         1       121.110      5.355520E+02     ; C-C-C, prebuilt ca-cp-cp
   598      597      602         1       118.380      5.581456E+02     ; C-C-C, prebuilt ca-cp-ca
   597      598      599         1       120.690      5.547984E+02     ; C-C-C, prebuilt ca-ca-cp
   597      598      678         1       119.860      4.016640E+02     ; C-C-H, prebuilt cp-ca-ha
   599      598      678         1       119.880      4.033376E+02     ; C-C-H, prebuilt ca-ca-ha
   598      599      600         1       120.020      5.573088E+02     ; C-C-C, prebuilt ca-ca-ca
   598      599      679         1       119.880      4.033376E+02     ; C-C-H, prebuilt ca-ca-ha
   600      599      679         1       119.880      4.033376E+02     ; C-C-H, prebuilt ca-ca-ha
   599      600      601         1       120.020      5.573088E+02     ; C-C-C, prebuilt ca-ca-ca
   599      600      606         1       120.330      5.380624E+02     ; C-C-C, prebuilt c-ca-ca
   601      600      606         1       120.330      5.380624E+02     ; C-C-C, prebuilt c-ca-ca
   600      601      602         1       120.020      5.573088E+02     ; C-C-C, prebuilt ca-ca-ca
   600      601      603         1       120.330      5.380624E+02     ; C-C-C, prebuilt c-ca-ca
   602      601      603         1       120.330      5.380624E+02     ; C-C-C, prebuilt c-ca-ca
   597      602      601         1       120.690      5.547984E+02     ; C-C-C, prebuilt ca-ca-cp
   597      602      680         1       119.860      4.016640E+02     ; C-C-H, prebuilt cp-ca-ha
   601      602      680         1       119.880      4.033376E+02     ; C-C-H, prebuilt ca-ca-ha
   601      603      604         1       122.600      5.748816E+02     ; C-C-O, prebuilt ca-c-o
   601      603      605         1       115.250      5.665136E+02     ; C-C-N, prebuilt ca-c-n
   604      603      605         1       123.050      6.209056E+02     ; O-C-N, prebuilt n-c-o
   603      605      606         1       127.080      5.330416E+02     ; C-N-C, prebuilt c-n-c
   603      605      608         1       123.710      5.338784E+02     ; C-N-C, prebuilt c-n-ca
   606      605      608         1       123.710      5.338784E+02     ; C-N-C, prebuilt c-n-ca
   600      606      605         1       115.250      5.665136E+02     ; C-C-N, prebuilt ca-c-n
   600      606      607         1       122.600      5.748816E+02     ; C-C-O, prebuilt ca-c-o
   605      606      607         1       123.050      6.209056E+02     ; N-C-O, prebuilt n-c-o
   605      608      609         1       120.190      5.681872E+02     ; N-C-C, prebuilt ca-ca-n
   605      608      613         1       120.190      5.681872E+02     ; N-C-C, prebuilt ca-ca-n
   609      608      613         1       120.020      5.573088E+02     ; C-C-C, prebuilt ca-ca-ca
   608      609      610         1       120.020      5.573088E+02     ; C-C-C, prebuilt ca-ca-ca
   608      609      681         1       119.880      4.033376E+02     ; C-C-H, prebuilt ca-ca-ha
   610      609      681         1       119.880      4.033376E+02     ; C-C-H, prebuilt ca-ca-ha
   609      610      611         1       120.020      5.573088E+02     ; C-C-C, prebuilt ca-ca-ca
   609      610      682         1       119.880      4.033376E+02     ; C-C-H, prebuilt ca-ca-ha
   611      610      682         1       119.880      4.033376E+02     ; C-C-H, prebuilt ca-ca-ha
   610      611      612         1       120.020      5.573088E+02     ; C-C-C, prebuilt ca-ca-ca
   610      611      614         1       120.190      5.681872E+02     ; C-C-N, prebuilt ca-ca-n
   612      611      614         1       120.190      5.681872E+02     ; C-C-N, prebuilt ca-ca-n
   611      612      613         1       120.020      5.573088E+02     ; C-C-C, prebuilt ca-ca-ca
   611      612      683         1       119.880      4.033376E+02     ; C-C-H, prebuilt ca-ca-ha
   613      612      683         1       119.880      4.033376E+02     ; C-C-H, prebuilt ca-ca-ha
   608      613      612         1       120.020      5.573088E+02     ; C-C-C, prebuilt ca-ca-ca
   608      613      684         1       119.880      4.033376E+02     ; C-C-H, prebuilt ca-ca-ha
   612      613      684         1       119.880      4.033376E+02     ; C-C-H, prebuilt ca-ca-ha
   611      614      615         1       123.710      5.338784E+02     ; C-N-C, prebuilt c-n-ca
   611      614      685         1       116.000      3.983168E+02     ; C-N-H, prebuilt ca-n-hn
   615      614      685         1       117.550      4.041744E+02     ; C-N-H, prebuilt c-n-hn
   614      615      616         1       123.050      6.209056E+02     ; N-C-O, prebuilt n-c-o
   614      615      617         1       115.250      5.665136E+02     ; N-C-C, prebuilt ca-c-n
   616      615      617         1       122.600      5.748816E+02     ; O-C-C, prebuilt ca-c-o
   615      617      618         1       120.330      5.380624E+02     ; C-C-C, prebuilt c-ca-ca
   615      617      622         1       120.330      5.380624E+02     ; C-C-C, prebuilt c-ca-ca
   618      617      622         1       120.020      5.573088E+02     ; C-C-C, prebuilt ca-ca-ca
   617      618      619         1       120.020      5.573088E+02     ; C-C-C, prebuilt ca-ca-ca
   617      618      686         1       119.880      4.033376E+02     ; C-C-H, prebuilt ca-ca-ha
   619      618      686         1       119.880      4.033376E+02     ; C-C-H, prebuilt ca-ca-ha
   618      619      620         1       120.020      5.573088E+02     ; C-C-C, prebuilt ca-ca-ca
   618      619      687         1       119.880      4.033376E+02     ; C-C-H, prebuilt ca-ca-ha
   620      619      687         1       119.880      4.033376E+02     ; C-C-H, prebuilt ca-ca-ha
   619      620      621         1       120.020      5.573088E+02     ; C-C-C, prebuilt ca-ca-ca
   619      620      677         1       120.770      5.313680E+02     ; C-C-C, prebuilt c3-ca-ca
   621      620      677         1       120.770      5.313680E+02     ; C-C-C, prebuilt c3-ca-ca
   620      621      622         1       120.020      5.573088E+02     ; C-C-C, prebuilt ca-ca-ca
   620      621      688         1       119.880      4.033376E+02     ; C-C-H, prebuilt ca-ca-ha
   622      621      688         1       119.880      4.033376E+02     ; C-C-H, prebuilt ca-ca-ha
   617      622      621         1       120.020      5.573088E+02     ; C-C-C, prebuilt ca-ca-ca
   617      622      623         1       120.190      5.681872E+02     ; C-C-N, prebuilt ca-ca-n
   621      622      623         1       120.190      5.681872E+02     ; C-C-N, prebuilt ca-ca-n
   622      623      624         1       123.710      5.338784E+02     ; C-N-C, prebuilt c-n-ca
   622      623      628         1       123.710      5.338784E+02     ; C-N-C, prebuilt c-n-ca
   624      623      628         1       127.080      5.330416E+02     ; C-N-C, prebuilt c-n-c
   623      624      625         1       123.050      6.209056E+02     ; N-C-O, prebuilt n-c-o
   623      624      626         1       115.250      5.665136E+02     ; N-C-C, prebuilt ca-c-n
   625      624      626         1       122.600      5.748816E+02     ; O-C-C, prebuilt ca-c-o
   624      626      627         1       120.330      5.380624E+02     ; C-C-C, prebuilt c-ca-ca
   624      626      633         1       120.330      5.380624E+02     ; C-C-C, prebuilt c-ca-ca
   627      626      633         1       120.020      5.573088E+02     ; C-C-C, prebuilt ca-ca-ca
   626      627      628         1       120.330      5.380624E+02     ; C-C-C, prebuilt c-ca-ca
   626      627      630         1       120.020      5.573088E+02     ; C-C-C, prebuilt ca-ca-ca
   628      627      630         1       120.330      5.380624E+02     ; C-C-C, prebuilt c-ca-ca
   623      628      627         1       115.250      5.665136E+02     ; N-C-C, prebuilt ca-c-n
   623      628      629         1       123.050      6.209056E+02     ; N-C-O, prebuilt n-c-o
   627      628      629         1       122.600      5.748816E+02     ; C-C-O, prebuilt ca-c-o
   627      630      631         1       120.020      5.573088E+02     ; C-C-C, prebuilt ca-ca-ca
   627      630      689         1       119.880      4.033376E+02     ; C-C-H, prebuilt ca-ca-ha
   631      630      689         1       119.880      4.033376E+02     ; C-C-H, prebuilt ca-ca-ha
   630      631      632         1       120.020      5.573088E+02     ; C-C-C, prebuilt ca-ca-ca
   630      631      634         1       120.330      5.380624E+02     ; C-C-C, prebuilt c-ca-ca
   632      631      634         1       120.330      5.380624E+02     ; C-C-C, prebuilt c-ca-ca
   631      632      633         1       120.020      5.573088E+02     ; C-C-C, prebuilt ca-ca-ca
   631      632      690         1       119.880      4.033376E+02     ; C-C-H, prebuilt ca-ca-ha
   633      632      690         1       119.880      4.033376E+02     ; C-C-H, prebuilt ca-ca-ha
   626      633      632         1       120.020      5.573088E+02     ; C-C-C, prebuilt ca-ca-ca
   626      633      691         1       119.880      4.033376E+02     ; C-C-H, prebuilt ca-ca-ha
   632      633      691         1       119.880      4.033376E+02     ; C-C-H, prebuilt ca-ca-ha
   631      634      635         1       122.600      5.748816E+02     ; C-C-O, prebuilt ca-c-o
   631      634      636         1       115.250      5.665136E+02     ; C-C-N, prebuilt ca-c-n
   635      634      636         1       123.050      6.209056E+02     ; O-C-N, prebuilt n-c-o
   634      636      637         1       123.710      5.338784E+02     ; C-N-C, prebuilt c-n-ca
   634      636      692         1       117.550      4.041744E+02     ; C-N-H, prebuilt c-n-hn
   637      636      692         1       116.000      3.983168E+02     ; C-N-H, prebuilt ca-n-hn
   636      637      638         1       120.190      5.681872E+02     ; N-C-C, prebuilt ca-ca-n
   636      637      642         1       120.190      5.681872E+02     ; N-C-C, prebuilt ca-ca-n
   638      637      642         1       120.020      5.573088E+02     ; C-C-C, prebuilt ca-ca-ca
   637      638      639         1       120.020      5.573088E+02     ; C-C-C, prebuilt ca-ca-ca
   637      638      693         1       119.880      4.033376E+02     ; C-C-H, prebuilt ca-ca-ha
   639      638      693         1       119.880      4.033376E+02     ; C-C-H, prebuilt ca-ca-ha
   638      639      640         1       120.020      5.573088E+02     ; C-C-C, prebuilt ca-ca-ca
   638      639      694         1       119.880      4.033376E+02     ; C-C-H, prebuilt ca-ca-ha
   640      639      694         1       119.880      4.033376E+02     ; C-C-H, prebuilt ca-ca-ha
   639      640      641         1       120.020      5.573088E+02     ; C-C-C, prebuilt ca-ca-ca
   639      640      643         1       119.200      5.824128E+02     ; C-C-O, prebuilt ca-ca-os
   641      640      643         1       119.200      5.824128E+02     ; C-C-O, prebuilt ca-ca-os
   640      641      642         1       120.020      5.573088E+02     ; C-C-C, prebuilt ca-ca-ca
   640      641      695         1       119.880      4.033376E+02     ; C-C-H, prebuilt ca-ca-ha
   642      641      695         1       119.880      4.033376E+02     ; C-C-H, prebuilt ca-ca-ha
   637      642      641         1       120.020      5.573088E+02     ; C-C-C, prebuilt ca-ca-ca
   637      642      696         1       119.880      4.033376E+02     ; C-C-H, prebuilt ca-ca-ha
   641      642      696         1       119.880      4.033376E+02     ; C-C-H, prebuilt ca-ca-ha
   640      643      644         1       119.890      5.313680E+02     ; C-O-C, prebuilt ca-os-ca
   643      644      645         1       119.200      5.824128E+02     ; O-C-C, prebuilt ca-ca-os
   643      644      649         1       119.200      5.824128E+02     ; O-C-C, prebuilt ca-ca-os
   645      644      649         1       120.020      5.573088E+02     ; C-C-C, prebuilt ca-ca-ca
   644      645      646         1       120.020      5.573088E+02     ; C-C-C, prebuilt ca-ca-ca
   644      645      697         1       119.880      4.033376E+02     ; C-C-H, prebuilt ca-ca-ha
   646      645      697         1       119.880      4.033376E+02     ; C-C-H, prebuilt ca-ca-ha
   645      646      647         1       120.020      5.573088E+02     ; C-C-C, prebuilt ca-ca-ca
   645      646      698         1       119.880      4.033376E+02     ; C-C-H, prebuilt ca-ca-ha
   647      646      698         1       119.880      4.033376E+02     ; C-C-H, prebuilt ca-ca-ha
   646      647      648         1       120.020      5.573088E+02     ; C-C-C, prebuilt ca-ca-ca
   646      647      699         1       119.880      4.033376E+02     ; C-C-H, prebuilt ca-ca-ha
   648      647      699         1       119.880      4.033376E+02     ; C-C-H, prebuilt ca-ca-ha
   647      648      649         1       120.020      5.573088E+02     ; C-C-C, prebuilt ca-ca-ca
   647      648      700         1       119.880      4.033376E+02     ; C-C-H, prebuilt ca-ca-ha
   649      648      700         1       119.880      4.033376E+02     ; C-C-H, prebuilt ca-ca-ha
   644      649      648         1       120.020      5.573088E+02     ; C-C-C, prebuilt ca-ca-ca
   644      649      650         1       119.200      5.824128E+02     ; C-C-O, prebuilt ca-ca-os
   648      649      650         1       119.200      5.824128E+02     ; C-C-O, prebuilt ca-ca-os
   649      650      651         1       119.890      5.313680E+02     ; C-O-C, prebuilt ca-os-ca
   650      651      652         1       119.200      5.824128E+02     ; O-C-C, prebuilt ca-ca-os
   650      651      656         1       119.200      5.824128E+02     ; O-C-C, prebuilt ca-ca-os
   652      651      656         1       120.020      5.573088E+02     ; C-C-C, prebuilt ca-ca-ca
   651      652      653         1       120.020      5.573088E+02     ; C-C-C, prebuilt ca-ca-ca
   651      652      701         1       119.880      4.033376E+02     ; C-C-H, prebuilt ca-ca-ha
   653      652      701         1       119.880      4.033376E+02     ; C-C-H, prebuilt ca-ca-ha
   652      653      654         1       120.020      5.573088E+02     ; C-C-C, prebuilt ca-ca-ca
   652      653      702         1       119.880      4.033376E+02     ; C-C-H, prebuilt ca-ca-ha
   654      653      702         1       119.880      4.033376E+02     ; C-C-H, prebuilt ca-ca-ha
   653      654      655         1       120.020      5.573088E+02     ; C-C-C, prebuilt ca-ca-ca
   653      654      657         1       120.190      5.681872E+02     ; C-C-N, prebuilt ca-ca-n
   655      654      657         1       120.190      5.681872E+02     ; C-C-N, prebuilt ca-ca-n
   654      655      656         1       120.020      5.573088E+02     ; C-C-C, prebuilt ca-ca-ca
   654      655      703         1       119.880      4.033376E+02     ; C-C-H, prebuilt ca-ca-ha
   656      655      703         1       119.880      4.033376E+02     ; C-C-H, prebuilt ca-ca-ha
   651      656      655         1       120.020      5.573088E+02     ; C-C-C, prebuilt ca-ca-ca
   651      656      704         1       119.880      4.033376E+02     ; C-C-H, prebuilt ca-ca-ha
   655      656      704         1       119.880      4.033376E+02     ; C-C-H, prebuilt ca-ca-ha
   654      657      658         1       123.710      5.338784E+02     ; C-N-C, prebuilt c-n-ca
   654      657      705         1       116.000      3.983168E+02     ; C-N-H, prebuilt ca-n-hn
   658      657      705         1       117.550      4.041744E+02     ; C-N-H, prebuilt c-n-hn
   657      658      659         1       123.050      6.209056E+02     ; N-C-O, prebuilt n-c-o
   657      658      660         1       115.250      5.665136E+02     ; N-C-C, prebuilt ca-c-n
   659      658      660         1       122.600      5.748816E+02     ; O-C-C, prebuilt ca-c-o
   658      660      661         1       120.330      5.380624E+02     ; C-C-C, prebuilt c-ca-ca
   658      660      665         1       120.330      5.380624E+02     ; C-C-C, prebuilt c-ca-ca
   661      660      665         1       120.020      5.573088E+02     ; C-C-C, prebuilt ca-ca-ca
   660      661      662         1       120.020      5.573088E+02     ; C-C-C, prebuilt ca-ca-ca
   660      661      706         1       119.880      4.033376E+02     ; C-C-H, prebuilt ca-ca-ha
   662      661      706         1       119.880      4.033376E+02     ; C-C-H, prebuilt ca-ca-ha
   661      662      663         1       120.020      5.573088E+02     ; C-C-C, prebuilt ca-ca-ca
   661      662      707         1       119.880      4.033376E+02     ; C-C-H, prebuilt ca-ca-ha
   663      662      707         1       119.880      4.033376E+02     ; C-C-H, prebuilt ca-ca-ha
   662      663      664         1       120.020      5.573088E+02     ; C-C-C, prebuilt ca-ca-ca
   662      663      666         1       120.190      5.681872E+02     ; C-C-N, prebuilt ca-ca-n
   664      663      666         1       120.190      5.681872E+02     ; C-C-N, prebuilt ca-ca-n
   663      664      665         1       120.020      5.573088E+02     ; C-C-C, prebuilt ca-ca-ca
   663      664      708         1       119.880      4.033376E+02     ; C-C-H, prebuilt ca-ca-ha
   665      664      708         1       119.880      4.033376E+02     ; C-C-H, prebuilt ca-ca-ha
   660      665      664         1       120.020      5.573088E+02     ; C-C-C, prebuilt ca-ca-ca
   660      665      709         1       119.880      4.033376E+02     ; C-C-H, prebuilt ca-ca-ha
   664      665      709         1       119.880      4.033376E+02     ; C-C-H, prebuilt ca-ca-ha
   663      666      667         1       123.710      5.338784E+02     ; C-N-C, prebuilt c-n-ca
   663      666      671         1       123.710      5.338784E+02     ; C-N-C, prebuilt c-n-ca
   667      666      671         1       127.080      5.330416E+02     ; C-N-C, prebuilt c-n-c
   666      667      668         1       123.050      6.209056E+02     ; N-C-O, prebuilt n-c-o
   666      667      669         1       115.250      5.665136E+02     ; N-C-C, prebuilt ca-c-n
   668      667      669         1       122.600      5.748816E+02     ; O-C-C, prebuilt ca-c-o
   667      669      670         1       120.330      5.380624E+02     ; C-C-C, prebuilt c-ca-ca
   667      669      676         1       120.330      5.380624E+02     ; C-C-C, prebuilt c-ca-ca
   670      669      676         1       120.020      5.573088E+02     ; C-C-C, prebuilt ca-ca-ca
   669      670      671         1       120.330      5.380624E+02     ; C-C-C, prebuilt c-ca-ca
   669      670      673         1       120.020      5.573088E+02     ; C-C-C, prebuilt ca-ca-ca
   671      670      673         1       120.330      5.380624E+02     ; C-C-C, prebuilt c-ca-ca
   666      671      670         1       115.250      5.665136E+02     ; N-C-C, prebuilt ca-c-n
   666      671      672         1       123.050      6.209056E+02     ; N-C-O, prebuilt n-c-o
   670      671      672         1       122.600      5.748816E+02     ; C-C-O, prebuilt ca-c-o
   670      673      674         1       120.690      5.547984E+02     ; C-C-C, prebuilt ca-ca-cp
   670      673      710         1       119.880      4.033376E+02     ; C-C-H, prebuilt ca-ca-ha
   674      673      710         1       119.860      4.016640E+02     ; C-C-H, prebuilt cp-ca-ha
   673      674      675         1       118.380      5.581456E+02     ; C-C-C, prebuilt ca-cp-ca
   673      674      716         1       121.110      5.355520E+02     ; C-C-C, prebuilt ca-cp-cp
   675      674      716         1       121.110      5.355520E+02     ; C-C-C, prebuilt ca-cp-cp
   674      675      676         1       120.690      5.547984E+02     ; C-C-C, prebuilt ca-ca-cp
   674      675      711         1       119.860      4.016640E+02     ; C-C-H, prebuilt cp-ca-ha
   676      675      711         1       119.880      4.033376E+02     ; C-C-H, prebuilt ca-ca-ha
   669      676      675         1       120.020      5.573088E+02     ; C-C-C, prebuilt ca-ca-ca
   669      676      712         1       119.880      4.033376E+02     ; C-C-H, prebuilt ca-ca-ha
   675      676      712         1       119.880      4.033376E+02     ; C-C-H, prebuilt ca-ca-ha
   620      677      713         1       110.470      3.916224E+02     ; C-C-H, prebuilt ca-c3-hc
   620      677      714         1       110.470      3.916224E+02     ; C-C-H, prebuilt ca-c3-hc
   620      677      715         1       110.470      3.916224E+02     ; C-C-H, prebuilt ca-c3-hc
   713      677      714         1       107.580      3.296992E+02     ; H-C-H, prebuilt hc-c3-hc
   713      677      715         1       107.580      3.296992E+02     ; H-C-H, prebuilt hc-c3-hc
   714      677      715         1       107.580      3.296992E+02     ; H-C-H, prebuilt hc-c3-hc
   674      716      717         1       121.110      5.355520E+02     ; C-C-C, prebuilt ca-cp-cp
   674      716      721         1       121.110      5.355520E+02     ; C-C-C, prebuilt ca-cp-cp
   717      716      721         1       118.380      5.581456E+02     ; C-C-C, prebuilt ca-cp-ca
   716      717      718         1       120.690      5.547984E+02     ; C-C-C, prebuilt ca-ca-cp
   716      717      797         1       119.860      4.016640E+02     ; C-C-H, prebuilt cp-ca-ha
   718      717      797         1       119.880      4.033376E+02     ; C-C-H, prebuilt ca-ca-ha
   717      718      719         1       120.020      5.573088E+02     ; C-C-C, prebuilt ca-ca-ca
   717      718      798         1       119.880      4.033376E+02     ; C-C-H, prebuilt ca-ca-ha
   719      718      798         1       119.880      4.033376E+02     ; C-C-H, prebuilt ca-ca-ha
   718      719      720         1       120.020      5.573088E+02     ; C-C-C, prebuilt ca-ca-ca
   718      719      725         1       120.330      5.380624E+02     ; C-C-C, prebuilt c-ca-ca
   720      719      725         1       120.330      5.380624E+02     ; C-C-C, prebuilt c-ca-ca
   719      720      721         1       120.020      5.573088E+02     ; C-C-C, prebuilt ca-ca-ca
   719      720      722         1       120.330      5.380624E+02     ; C-C-C, prebuilt c-ca-ca
   721      720      722         1       120.330      5.380624E+02     ; C-C-C, prebuilt c-ca-ca
   716      721      720         1       120.690      5.547984E+02     ; C-C-C, prebuilt ca-ca-cp
   716      721      799         1       119.860      4.016640E+02     ; C-C-H, prebuilt cp-ca-ha
   720      721      799         1       119.880      4.033376E+02     ; C-C-H, prebuilt ca-ca-ha
   720      722      723         1       122.600      5.748816E+02     ; C-C-O, prebuilt ca-c-o
   720      722      724         1       115.250      5.665136E+02     ; C-C-N, prebuilt ca-c-n
   723      722      724         1       123.050      6.209056E+02     ; O-C-N, prebuilt n-c-o
   722      724      725         1       127.080      5.330416E+02     ; C-N-C, prebuilt c-n-c
   722      724      727         1       123.710      5.338784E+02     ; C-N-C, prebuilt c-n-ca
   725      724      727         1       123.710      5.338784E+02     ; C-N-C, prebuilt c-n-ca
   719      725      724         1       115.250      5.665136E+02     ; C-C-N, prebuilt ca-c-n
   719      725      726         1       122.600      5.748816E+02     ; C-C-O, prebuilt ca-c-o
   724      725      726         1       123.050      6.209056E+02     ; N-C-O, prebuilt n-c-o
   724      727      728         1       120.190      5.681872E+02     ; N-C-C, prebuilt ca-ca-n
   724      727      732         1       120.190      5.681872E+02     ; N-C-C, prebuilt ca-ca-n
   728      727      732         1       120.020      5.573088E+02     ; C-C-C, prebuilt ca-ca-ca
   727      728      729         1       120.020      5.573088E+02     ; C-C-C, prebuilt ca-ca-ca
   727      728      800         1       119.880      4.033376E+02     ; C-C-H, prebuilt ca-ca-ha
   729      728      800         1       119.880      4.033376E+02     ; C-C-H, prebuilt ca-ca-ha
   728      729      730         1       120.020      5.573088E+02     ; C-C-C, prebuilt ca-ca-ca
   728      729      801         1       119.880      4.033376E+02     ; C-C-H, prebuilt ca-ca-ha
   730      729      801         1       119.880      4.033376E+02     ; C-C-H, prebuilt ca-ca-ha
   729      730      731         1       120.020      5.573088E+02     ; C-C-C, prebuilt ca-ca-ca
   729      730      733         1       120.190      5.681872E+02     ; C-C-N, prebuilt ca-ca-n
   731      730      733         1       120.190      5.681872E+02     ; C-C-N, prebuilt ca-ca-n
   730      731      732         1       120.020      5.573088E+02     ; C-C-C, prebuilt ca-ca-ca
   730      731      802         1       119.880      4.033376E+02     ; C-C-H, prebuilt ca-ca-ha
   732      731      802         1       119.880      4.033376E+02     ; C-C-H, prebuilt ca-ca-ha
   727      732      731         1       120.020      5.573088E+02     ; C-C-C, prebuilt ca-ca-ca
   727      732      803         1       119.880      4.033376E+02     ; C-C-H, prebuilt ca-ca-ha
   731      732      803         1       119.880      4.033376E+02     ; C-C-H, prebuilt ca-ca-ha
   730      733      734         1       123.710      5.338784E+02     ; C-N-C, prebuilt c-n-ca
   730      733      804         1       116.000      3.983168E+02     ; C-N-H, prebuilt ca-n-hn
   734      733      804         1       117.550      4.041744E+02     ; C-N-H, prebuilt c-n-hn
   733      734      735         1       123.050      6.209056E+02     ; N-C-O, prebuilt n-c-o
   733      734      736         1       115.250      5.665136E+02     ; N-C-C, prebuilt ca-c-n
   735      734      736         1       122.600      5.748816E+02     ; O-C-C, prebuilt ca-c-o
   734      736      737         1       120.330      5.380624E+02     ; C-C-C, prebuilt c-ca-ca
   734      736      741         1       120.330      5.380624E+02     ; C-C-C, prebuilt c-ca-ca
   737      736      741         1       120.020      5.573088E+02     ; C-C-C, prebuilt ca-ca-ca
   736      737      738         1       120.020      5.573088E+02     ; C-C-C, prebuilt ca-ca-ca
   736      737      805         1       119.880      4.033376E+02     ; C-C-H, prebuilt ca-ca-ha
   738      737      805         1       119.880      4.033376E+02     ; C-C-H, prebuilt ca-ca-ha
   737      738      739         1       120.020      5.573088E+02     ; C-C-C, prebuilt ca-ca-ca
   737      738      806         1       119.880      4.033376E+02     ; C-C-H, prebuilt ca-ca-ha
   739      738      806         1       119.880      4.033376E+02     ; C-C-H, prebuilt ca-ca-ha
   738      739      740         1       120.020      5.573088E+02     ; C-C-C, prebuilt ca-ca-ca
   738      739      796         1       120.770      5.313680E+02     ; C-C-C, prebuilt c3-ca-ca
   740      739      796         1       120.770      5.313680E+02     ; C-C-C, prebuilt c3-ca-ca
   739      740      741         1       120.020      5.573088E+02     ; C-C-C, prebuilt ca-ca-ca
   739      740      807         1       119.880      4.033376E+02     ; C-C-H, prebuilt ca-ca-ha
   741      740      807         1       119.880      4.033376E+02     ; C-C-H, prebuilt ca-ca-ha
   736      741      740         1       120.020      5.573088E+02     ; C-C-C, prebuilt ca-ca-ca
   736      741      742         1       120.190      5.681872E+02     ; C-C-N, prebuilt ca-ca-n
   740      741      742         1       120.190      5.681872E+02     ; C-C-N, prebuilt ca-ca-n
   741      742      743         1       123.710      5.338784E+02     ; C-N-C, prebuilt c-n-ca
   741      742      747         1       123.710      5.338784E+02     ; C-N-C, prebuilt c-n-ca
   743      742      747         1       127.080      5.330416E+02     ; C-N-C, prebuilt c-n-c
   742      743      744         1       123.050      6.209056E+02     ; N-C-O, prebuilt n-c-o
   742      743      745         1       115.250      5.665136E+02     ; N-C-C, prebuilt ca-c-n
   744      743      745         1       122.600      5.748816E+02     ; O-C-C, prebuilt ca-c-o
   743      745      746         1       120.330      5.380624E+02     ; C-C-C, prebuilt c-ca-ca
   743      745      752         1       120.330      5.380624E+02     ; C-C-C, prebuilt c-ca-ca
   746      745      752         1       120.020      5.573088E+02     ; C-C-C, prebuilt ca-ca-ca
   745      746      747         1       120.330      5.380624E+02     ; C-C-C, prebuilt c-ca-ca
   745      746      749         1       120.020      5.573088E+02     ; C-C-C, prebuilt ca-ca-ca
   747      746      749         1       120.330      5.380624E+02     ; C-C-C, prebuilt c-ca-ca
   742      747      746         1       115.250      5.665136E+02     ; N-C-C, prebuilt ca-c-n
   742      747      748         1       123.050      6.209056E+02     ; N-C-O, prebuilt n-c-o
   746      747      748         1       122.600      5.748816E+02     ; C-C-O, prebuilt ca-c-o
   746      749      750         1       120.020      5.573088E+02     ; C-C-C, prebuilt ca-ca-ca
   746      749      808         1       119.880      4.033376E+02     ; C-C-H, prebuilt ca-ca-ha
   750      749      808         1       119.880      4.033376E+02     ; C-C-H, prebuilt ca-ca-ha
   749      750      751         1       120.020      5.573088E+02     ; C-C-C, prebuilt ca-ca-ca
   749      750      753         1       120.330      5.380624E+02     ; C-C-C, prebuilt c-ca-ca
   751      750      753         1       120.330      5.380624E+02     ; C-C-C, prebuilt c-ca-ca
   750      751      752         1       120.020      5.573088E+02     ; C-C-C, prebuilt ca-ca-ca
   750      751      809         1       119.880      4.033376E+02     ; C-C-H, prebuilt ca-ca-ha
   752      751      809         1       119.880      4.033376E+02     ; C-C-H, prebuilt ca-ca-ha
   745      752      751         1       120.020      5.573088E+02     ; C-C-C, prebuilt ca-ca-ca
   745      752      810         1       119.880      4.033376E+02     ; C-C-H, prebuilt ca-ca-ha
   751      752      810         1       119.880      4.033376E+02     ; C-C-H, prebuilt ca-ca-ha
   750      753      754         1       122.600      5.748816E+02     ; C-C-O, prebuilt ca-c-o
   750      753      755         1       115.250      5.665136E+02     ; C-C-N, prebuilt ca-c-n
   754      753      755         1       123.050      6.209056E+02     ; O-C-N, prebuilt n-c-o
   753      755      756         1       123.710      5.338784E+02     ; C-N-C, prebuilt c-n-ca
   753      755      811         1       117.550      4.041744E+02     ; C-N-H, prebuilt c-n-hn
   756      755      811         1       116.000      3.983168E+02     ; C-N-H, prebuilt ca-n-hn
   755      756      757         1       120.190      5.681872E+02     ; N-C-C, prebuilt ca-ca-n
   755      756      761         1       120.190      5.681872E+02     ; N-C-C, prebuilt ca-ca-n
   757      756      761         1       120.020      5.573088E+02     ; C-C-C, prebuilt ca-ca-ca
   756      757      758         1       120.020      5.573088E+02     ; C-C-C, prebuilt ca-ca-ca
   756      757      812         1       119.880      4.033376E+02     ; C-C-H, prebuilt ca-ca-ha
   758      757      812         1       119.880      4.033376E+02     ; C-C-H, prebuilt ca-ca-ha
   757      758      759         1       120.020      5.573088E+02     ; C-C-C, prebuilt ca-ca-ca
   757      758      813         1       119.880      4.033376E+02     ; C-C-H, prebuilt ca-ca-ha
   759      758      813         1       119.880      4.033376E+02     ; C-C-H, prebuilt ca-ca-ha
   758      759      760         1       120.020      5.573088E+02     ; C-C-C, prebuilt ca-ca-ca
   758      759      762         1       119.200      5.824128E+02     ; C-C-O, prebuilt ca-ca-os
   760      759      762         1       119.200      5.824128E+02     ; C-C-O, prebuilt ca-ca-os
   759      760      761         1       120.020      5.573088E+02     ; C-C-C, prebuilt ca-ca-ca
   759      760      814         1       119.880      4.033376E+02     ; C-C-H, prebuilt ca-ca-ha
   761      760      814         1       119.880      4.033376E+02     ; C-C-H, prebuilt ca-ca-ha
   756      761      760         1       120.020      5.573088E+02     ; C-C-C, prebuilt ca-ca-ca
   756      761      815         1       119.880      4.033376E+02     ; C-C-H, prebuilt ca-ca-ha
   760      761      815         1       119.880      4.033376E+02     ; C-C-H, prebuilt ca-ca-ha
   759      762      763         1       119.890      5.313680E+02     ; C-O-C, prebuilt ca-os-ca
   762      763      764         1       119.200      5.824128E+02     ; O-C-C, prebuilt ca-ca-os
   762      763      768         1       119.200      5.824128E+02     ; O-C-C, prebuilt ca-ca-os
   764      763      768         1       120.020      5.573088E+02     ; C-C-C, prebuilt ca-ca-ca
   763      764      765         1       120.020      5.573088E+02     ; C-C-C, prebuilt ca-ca-ca
   763      764      816         1       119.880      4.033376E+02     ; C-C-H, prebuilt ca-ca-ha
   765      764      816         1       119.880      4.033376E+02     ; C-C-H, prebuilt ca-ca-ha
   764      765      766         1       120.020      5.573088E+02     ; C-C-C, prebuilt ca-ca-ca
   764      765      817         1       119.880      4.033376E+02     ; C-C-H, prebuilt ca-ca-ha
   766      765      817         1       119.880      4.033376E+02     ; C-C-H, prebuilt ca-ca-ha
   765      766      767         1       120.020      5.573088E+02     ; C-C-C, prebuilt ca-ca-ca
   765      766      818         1       119.880      4.033376E+02     ; C-C-H, prebuilt ca-ca-ha
   767      766      818         1       119.880      4.033376E+02     ; C-C-H, prebuilt ca-ca-ha
   766      767      768         1       120.020      5.573088E+02     ; C-C-C, prebuilt ca-ca-ca
   766      767      819         1       119.880      4.033376E+02     ; C-C-H, prebuilt ca-ca-ha
   768      767      819         1       119.880      4.033376E+02     ; C-C-H, prebuilt ca-ca-ha
   763      768      767         1       120.020      5.573088E+02     ; C-C-C, prebuilt ca-ca-ca
   763      768      769         1       119.200      5.824128E+02     ; C-C-O, prebuilt ca-ca-os
   767      768      769         1       119.200      5.824128E+02     ; C-C-O, prebuilt ca-ca-os
   768      769      770         1       119.890      5.313680E+02     ; C-O-C, prebuilt ca-os-ca
   769      770      771         1       119.200      5.824128E+02     ; O-C-C, prebuilt ca-ca-os
   769      770      775         1       119.200      5.824128E+02     ; O-C-C, prebuilt ca-ca-os
   771      770      775         1       120.020      5.573088E+02     ; C-C-C, prebuilt ca-ca-ca
   770      771      772         1       120.020      5.573088E+02     ; C-C-C, prebuilt ca-ca-ca
   770      771      820         1       119.880      4.033376E+02     ; C-C-H, prebuilt ca-ca-ha
   772      771      820         1       119.880      4.033376E+02     ; C-C-H, prebuilt ca-ca-ha
   771      772      773         1       120.020      5.573088E+02     ; C-C-C, prebuilt ca-ca-ca
   771      772      821         1       119.880      4.033376E+02     ; C-C-H, prebuilt ca-ca-ha
   773      772      821         1       119.880      4.033376E+02     ; C-C-H, prebuilt ca-ca-ha
   772      773      774         1       120.020      5.573088E+02     ; C-C-C, prebuilt ca-ca-ca
   772      773      776         1       120.190      5.681872E+02     ; C-C-N, prebuilt ca-ca-n
   774      773      776         1       120.190      5.681872E+02     ; C-C-N, prebuilt ca-ca-n
   773      774      775         1       120.020      5.573088E+02     ; C-C-C, prebuilt ca-ca-ca
   773      774      822         1       119.880      4.033376E+02     ; C-C-H, prebuilt ca-ca-ha
   775      774      822         1       119.880      4.033376E+02     ; C-C-H, prebuilt ca-ca-ha
   770      775      774         1       120.020      5.573088E+02     ; C-C-C, prebuilt ca-ca-ca
   770      775      823         1       119.880      4.033376E+02     ; C-C-H, prebuilt ca-ca-ha
   774      775      823         1       119.880      4.033376E+02     ; C-C-H, prebuilt ca-ca-ha
   773      776      777         1       123.710      5.338784E+02     ; C-N-C, prebuilt c-n-ca
   773      776      824         1       116.000      3.983168E+02     ; C-N-H, prebuilt ca-n-hn
   777      776      824         1       117.550      4.041744E+02     ; C-N-H, prebuilt c-n-hn
   776      777      778         1       123.050      6.209056E+02     ; N-C-O, prebuilt n-c-o
   776      777      779         1       115.250      5.665136E+02     ; N-C-C, prebuilt ca-c-n
   778      777      779         1       122.600      5.748816E+02     ; O-C-C, prebuilt ca-c-o
   777      779      780         1       120.330      5.380624E+02     ; C-C-C, prebuilt c-ca-ca
   777      779      784         1       120.330      5.380624E+02     ; C-C-C, prebuilt c-ca-ca
   780      779      784         1       120.020      5.573088E+02     ; C-C-C, prebuilt ca-ca-ca
   779      780      781         1       120.020      5.573088E+02     ; C-C-C, prebuilt ca-ca-ca
   779      780      825         1       119.880      4.033376E+02     ; C-C-H, prebuilt ca-ca-ha
   781      780      825         1       119.880      4.033376E+02     ; C-C-H, prebuilt ca-ca-ha
   780      781      782         1       120.020      5.573088E+02     ; C-C-C, prebuilt ca-ca-ca
   780      781      826         1       119.880      4.033376E+02     ; C-C-H, prebuilt ca-ca-ha
   782      781      826         1       119.880      4.033376E+02     ; C-C-H, prebuilt ca-ca-ha
   781      782      783         1       120.020      5.573088E+02     ; C-C-C, prebuilt ca-ca-ca
   781      782      785         1       120.190      5.681872E+02     ; C-C-N, prebuilt ca-ca-n
   783      782      785         1       120.190      5.681872E+02     ; C-C-N, prebuilt ca-ca-n
   782      783      784         1       120.020      5.573088E+02     ; C-C-C, prebuilt ca-ca-ca
   782      783      827         1       119.880      4.033376E+02     ; C-C-H, prebuilt ca-ca-ha
   784      783      827         1       119.880      4.033376E+02     ; C-C-H, prebuilt ca-ca-ha
   779      784      783         1       120.020      5.573088E+02     ; C-C-C, prebuilt ca-ca-ca
   779      784      828         1       119.880      4.033376E+02     ; C-C-H, prebuilt ca-ca-ha
   783      784      828         1       119.880      4.033376E+02     ; C-C-H, prebuilt ca-ca-ha
   782      785      786         1       123.710      5.338784E+02     ; C-N-C, prebuilt c-n-ca
   782      785      790         1       123.710      5.338784E+02     ; C-N-C, prebuilt c-n-ca
   786      785      790         1       127.080      5.330416E+02     ; C-N-C, prebuilt c-n-c
   785      786      787         1       123.050      6.209056E+02     ; N-C-O, prebuilt n-c-o
   785      786      788         1       115.250      5.665136E+02     ; N-C-C, prebuilt ca-c-n
   787      786      788         1       122.600      5.748816E+02     ; O-C-C, prebuilt ca-c-o
   786      788      789         1       120.330      5.380624E+02     ; C-C-C, prebuilt c-ca-ca
   786      788      795         1       120.330      5.380624E+02     ; C-C-C, prebuilt c-ca-ca
   789      788      795         1       120.020      5.573088E+02     ; C-C-C, prebuilt ca-ca-ca
   788      789      790         1       120.330      5.380624E+02     ; C-C-C, prebuilt c-ca-ca
   788      789      792         1       120.020      5.573088E+02     ; C-C-C, prebuilt ca-ca-ca
   790      789      792         1       120.330      5.380624E+02     ; C-C-C, prebuilt c-ca-ca
   785      790      789         1       115.250      5.665136E+02     ; N-C-C, prebuilt ca-c-n
   785      790      791         1       123.050      6.209056E+02     ; N-C-O, prebuilt n-c-o
   789      790      791         1       122.600      5.748816E+02     ; C-C-O, prebuilt ca-c-o
   789      792      793         1       120.690      5.547984E+02     ; C-C-C, prebuilt ca-ca-cp
   789      792      829         1       119.880      4.033376E+02     ; C-C-H, prebuilt ca-ca-ha
   793      792      829         1       119.860      4.016640E+02     ; C-C-H, prebuilt cp-ca-ha
   792      793      794         1       118.380      5.581456E+02     ; C-C-C, prebuilt ca-cp-ca
   792      793      835         1       121.110      5.355520E+02     ; C-C-C, prebuilt ca-cp-cp
   794      793      835         1       121.110      5.355520E+02     ; C-C-C, prebuilt ca-cp-cp
   793      794      795         1       120.690      5.547984E+02     ; C-C-C, prebuilt ca-ca-cp
   793      794      830         1       119.860      4.016640E+02     ; C-C-H, prebuilt cp-ca-ha
   795      794      830         1       119.880      4.033376E+02     ; C-C-H, prebuilt ca-ca-ha
   788      795      794         1       120.020      5.573088E+02     ; C-C-C, prebuilt ca-ca-ca
   788      795      831         1       119.880      4.033376E+02     ; C-C-H, prebuilt ca-ca-ha
   794      795      831         1       119.880      4.033376E+02     ; C-C-H, prebuilt ca-ca-ha
   739      796      832         1       110.470      3.916224E+02     ; C-C-H, prebuilt ca-c3-hc
   739      796      833         1       110.470      3.916224E+02     ; C-C-H, prebuilt ca-c3-hc
   739      796      834         1       110.470      3.916224E+02     ; C-C-H, prebuilt ca-c3-hc
   832      796      833         1       107.580      3.296992E+02     ; H-C-H, prebuilt hc-c3-hc
   832      796      834         1       107.580      3.296992E+02     ; H-C-H, prebuilt hc-c3-hc
   833      796      834         1       107.580      3.296992E+02     ; H-C-H, prebuilt hc-c3-hc
   793      835      836         1       121.110      5.355520E+02     ; C-C-C, prebuilt ca-cp-cp
   793      835      840         1       121.110      5.355520E+02     ; C-C-C, prebuilt ca-cp-cp
   836      835      840         1       118.380      5.581456E+02     ; C-C-C, prebuilt ca-cp-ca
   835      836      837         1       120.690      5.547984E+02     ; C-C-C, prebuilt ca-ca-cp
   835      836      916         1       119.860      4.016640E+02     ; C-C-H, prebuilt cp-ca-ha
   837      836      916         1       119.880      4.033376E+02     ; C-C-H, prebuilt ca-ca-ha
   836      837      838         1       120.020      5.573088E+02     ; C-C-C, prebuilt ca-ca-ca
   836      837      917         1       119.880      4.033376E+02     ; C-C-H, prebuilt ca-ca-ha
   838      837      917         1       119.880      4.033376E+02     ; C-C-H, prebuilt ca-ca-ha
   837      838      839         1       120.020      5.573088E+02     ; C-C-C, prebuilt ca-ca-ca
   837      838      844         1       120.330      5.380624E+02     ; C-C-C, prebuilt c-ca-ca
   839      838      844         1       120.330      5.380624E+02     ; C-C-C, prebuilt c-ca-ca
   838      839      840         1       120.020      5.573088E+02     ; C-C-C, prebuilt ca-ca-ca
   838      839      841         1       120.330      5.380624E+02     ; C-C-C, prebuilt c-ca-ca
   840      839      841         1       120.330      5.380624E+02     ; C-C-C, prebuilt c-ca-ca
   835      840      839         1       120.690      5.547984E+02     ; C-C-C, prebuilt ca-ca-cp
   835      840      918         1       119.860      4.016640E+02     ; C-C-H, prebuilt cp-ca-ha
   839      840      918         1       119.880      4.033376E+02     ; C-C-H, prebuilt ca-ca-ha
   839      841      842         1       122.600      5.748816E+02     ; C-C-O, prebuilt ca-c-o
   839      841      843         1       115.250      5.665136E+02     ; C-C-N, prebuilt ca-c-n
   842      841      843         1       123.050      6.209056E+02     ; O-C-N, prebuilt n-c-o
   841      843      844         1       127.080      5.330416E+02     ; C-N-C, prebuilt c-n-c
   841      843      846         1       123.710      5.338784E+02     ; C-N-C, prebuilt c-n-ca
   844      843      846         1       123.710      5.338784E+02     ; C-N-C, prebuilt c-n-ca
   838      844      843         1       115.250      5.665136E+02     ; C-C-N, prebuilt ca-c-n
   838      844      845         1       122.600      5.748816E+02     ; C-C-O, prebuilt ca-c-o
   843      844      845         1       123.050      6.209056E+02     ; N-C-O, prebuilt n-c-o
   843      846      847         1       120.190      5.681872E+02     ; N-C-C, prebuilt ca-ca-n
   843      846      851         1       120.190      5.681872E+02     ; N-C-C, prebuilt ca-ca-n
   847      846      851         1       120.020      5.573088E+02     ; C-C-C, prebuilt ca-ca-ca
   846      847      848         1       120.020      5.573088E+02     ; C-C-C, prebuilt ca-ca-ca
   846      847      919         1       119.880      4.033376E+02     ; C-C-H, prebuilt ca-ca-ha
   848      847      919         1       119.880      4.033376E+02     ; C-C-H, prebuilt ca-ca-ha
   847      848      849         1       120.020      5.573088E+02     ; C-C-C, prebuilt ca-ca-ca
   847      848      920         1       119.880      4.033376E+02     ; C-C-H, prebuilt ca-ca-ha
   849      848      920         1       119.880      4.033376E+02     ; C-C-H, prebuilt ca-ca-ha
   848      849      850         1       120.020      5.573088E+02     ; C-C-C, prebuilt ca-ca-ca
   848      849      852         1       120.190      5.681872E+02     ; C-C-N, prebuilt ca-ca-n
   850      849      852         1       120.190      5.681872E+02     ; C-C-N, prebuilt ca-ca-n
   849      850      851         1       120.020      5.573088E+02     ; C-C-C, prebuilt ca-ca-ca
   849      850      921         1       119.880      4.033376E+02     ; C-C-H, prebuilt ca-ca-ha
   851      850      921         1       119.880      4.033376E+02     ; C-C-H, prebuilt ca-ca-ha
   846      851      850         1       120.020      5.573088E+02     ; C-C-C, prebuilt ca-ca-ca
   846      851      922         1       119.880      4.033376E+02     ; C-C-H, prebuilt ca-ca-ha
   850      851      922         1       119.880      4.033376E+02     ; C-C-H, prebuilt ca-ca-ha
   849      852      853         1       123.710      5.338784E+02     ; C-N-C, prebuilt c-n-ca
   849      852      923         1       116.000      3.983168E+02     ; C-N-H, prebuilt ca-n-hn
   853      852      923         1       117.550      4.041744E+02     ; C-N-H, prebuilt c-n-hn
   852      853      854         1       123.050      6.209056E+02     ; N-C-O, prebuilt n-c-o
   852      853      855         1       115.250      5.665136E+02     ; N-C-C, prebuilt ca-c-n
   854      853      855         1       122.600      5.748816E+02     ; O-C-C, prebuilt ca-c-o
   853      855      856         1       120.330      5.380624E+02     ; C-C-C, prebuilt c-ca-ca
   853      855      860         1       120.330      5.380624E+02     ; C-C-C, prebuilt c-ca-ca
   856      855      860         1       120.020      5.573088E+02     ; C-C-C, prebuilt ca-ca-ca
   855      856      857         1       120.020      5.573088E+02     ; C-C-C, prebuilt ca-ca-ca
   855      856      924         1       119.880      4.033376E+02     ; C-C-H, prebuilt ca-ca-ha
   857      856      924         1       119.880      4.033376E+02     ; C-C-H, prebuilt ca-ca-ha
   856      857      858         1       120.020      5.573088E+02     ; C-C-C, prebuilt ca-ca-ca
   856      857      925         1       119.880      4.033376E+02     ; C-C-H, prebuilt ca-ca-ha
   858      857      925         1       119.880      4.033376E+02     ; C-C-H, prebuilt ca-ca-ha
   857      858      859         1       120.020      5.573088E+02     ; C-C-C, prebuilt ca-ca-ca
   857      858      915         1       120.770      5.313680E+02     ; C-C-C, prebuilt c3-ca-ca
   859      858      915         1       120.770      5.313680E+02     ; C-C-C, prebuilt c3-ca-ca
   858      859      860         1       120.020      5.573088E+02     ; C-C-C, prebuilt ca-ca-ca
   858      859      926         1       119.880      4.033376E+02     ; C-C-H, prebuilt ca-ca-ha
   860      859      926         1       119.880      4.033376E+02     ; C-C-H, prebuilt ca-ca-ha
   855      860      859         1       120.020      5.573088E+02     ; C-C-C, prebuilt ca-ca-ca
   855      860      861         1       120.190      5.681872E+02     ; C-C-N, prebuilt ca-ca-n
   859      860      861         1       120.190      5.681872E+02     ; C-C-N, prebuilt ca-ca-n
   860      861      862         1       123.710      5.338784E+02     ; C-N-C, prebuilt c-n-ca
   860      861      866         1       123.710      5.338784E+02     ; C-N-C, prebuilt c-n-ca
   862      861      866         1       127.080      5.330416E+02     ; C-N-C, prebuilt c-n-c
   861      862      863         1       123.050      6.209056E+02     ; N-C-O, prebuilt n-c-o
   861      862      864         1       115.250      5.665136E+02     ; N-C-C, prebuilt ca-c-n
   863      862      864         1       122.600      5.748816E+02     ; O-C-C, prebuilt ca-c-o
   862      864      865         1       120.330      5.380624E+02     ; C-C-C, prebuilt c-ca-ca
   862      864      871         1       120.330      5.380624E+02     ; C-C-C, prebuilt c-ca-ca
   865      864      871         1       120.020      5.573088E+02     ; C-C-C, prebuilt ca-ca-ca
   864      865      866         1       120.330      5.380624E+02     ; C-C-C, prebuilt c-ca-ca
   864      865      868         1       120.020      5.573088E+02     ; C-C-C, prebuilt ca-ca-ca
   866      865      868         1       120.330      5.380624E+02     ; C-C-C, prebuilt c-ca-ca
   861      866      865         1       115.250      5.665136E+02     ; N-C-C, prebuilt ca-c-n
   861      866      867         1       123.050      6.209056E+02     ; N-C-O, prebuilt n-c-o
   865      866      867         1       122.600      5.748816E+02     ; C-C-O, prebuilt ca-c-o
   865      868      869         1       120.020      5.573088E+02     ; C-C-C, prebuilt ca-ca-ca
   865      868      927         1       119.880      4.033376E+02     ; C-C-H, prebuilt ca-ca-ha
   869      868      927         1       119.880      4.033376E+02     ; C-C-H, prebuilt ca-ca-ha
   868      869      870         1       120.020      5.573088E+02     ; C-C-C, prebuilt ca-ca-ca
   868      869      872         1       120.330      5.380624E+02     ; C-C-C, prebuilt c-ca-ca
   870      869      872         1       120.330      5.380624E+02     ; C-C-C, prebuilt c-ca-ca
   869      870      871         1       120.020      5.573088E+02     ; C-C-C, prebuilt ca-ca-ca
   869      870      928         1       119.880      4.033376E+02     ; C-C-H, prebuilt ca-ca-ha
   871      870      928         1       119.880      4.033376E+02     ; C-C-H, prebuilt ca-ca-ha
   864      871      870         1       120.020      5.573088E+02     ; C-C-C, prebuilt ca-ca-ca
   864      871      929         1       119.880      4.033376E+02     ; C-C-H, prebuilt ca-ca-ha
   870      871      929         1       119.880      4.033376E+02     ; C-C-H, prebuilt ca-ca-ha
   869      872      873         1       122.600      5.748816E+02     ; C-C-O, prebuilt ca-c-o
   869      872      874         1       115.250      5.665136E+02     ; C-C-N, prebuilt ca-c-n
   873      872      874         1       123.050      6.209056E+02     ; O-C-N, prebuilt n-c-o
   872      874      875         1       123.710      5.338784E+02     ; C-N-C, prebuilt c-n-ca
   872      874      930         1       117.550      4.041744E+02     ; C-N-H, prebuilt c-n-hn
   875      874      930         1       116.000      3.983168E+02     ; C-N-H, prebuilt ca-n-hn
   874      875      876         1       120.190      5.681872E+02     ; N-C-C, prebuilt ca-ca-n
   874      875      880         1       120.190      5.681872E+02     ; N-C-C, prebuilt ca-ca-n
   876      875      880         1       120.020      5.573088E+02     ; C-C-C, prebuilt ca-ca-ca
   875      876      877         1       120.020      5.573088E+02     ; C-C-C, prebuilt ca-ca-ca
   875      876      931         1       119.880      4.033376E+02     ; C-C-H, prebuilt ca-ca-ha
   877      876      931         1       119.880      4.033376E+02     ; C-C-H, prebuilt ca-ca-ha
   876      877      878         1       120.020      5.573088E+02     ; C-C-C, prebuilt ca-ca-ca
   876      877      932         1       119.880      4.033376E+02     ; C-C-H, prebuilt ca-ca-ha
   878      877      932         1       119.880      4.033376E+02     ; C-C-H, prebuilt ca-ca-ha
   877      878      879         1       120.020      5.573088E+02     ; C-C-C, prebuilt ca-ca-ca
   877      878      881         1       119.200      5.824128E+02     ; C-C-O, prebuilt ca-ca-os
   879      878      881         1       119.200      5.824128E+02     ; C-C-O, prebuilt ca-ca-os
   878      879      880         1       120.020      5.573088E+02     ; C-C-C, prebuilt ca-ca-ca
   878      879      933         1       119.880      4.033376E+02     ; C-C-H, prebuilt ca-ca-ha
   880      879      933         1       119.880      4.033376E+02     ; C-C-H, prebuilt ca-ca-ha
   875      880      879         1       120.020      5.573088E+02     ; C-C-C, prebuilt ca-ca-ca
   875      880      934         1       119.880      4.033376E+02     ; C-C-H, prebuilt ca-ca-ha
   879      880      934         1       119.880      4.033376E+02     ; C-C-H, prebuilt ca-ca-ha
   878      881      882         1       119.890      5.313680E+02     ; C-O-C, prebuilt ca-os-ca
   881      882      883         1       119.200      5.824128E+02     ; O-C-C, prebuilt ca-ca-os
   881      882      887         1       119.200      5.824128E+02     ; O-C-C, prebuilt ca-ca-os
   883      882      887         1       120.020      5.573088E+02     ; C-C-C, prebuilt ca-ca-ca
   882      883      884         1       120.020      5.573088E+02     ; C-C-C, prebuilt ca-ca-ca
   882      883      935         1       119.880      4.033376E+02     ; C-C-H, prebuilt ca-ca-ha
   884      883      935         1       119.880      4.033376E+02     ; C-C-H, prebuilt ca-ca-ha
   883      884      885         1       120.020      5.573088E+02     ; C-C-C, prebuilt ca-ca-ca
   883      884      936         1       119.880      4.033376E+02     ; C-C-H, prebuilt ca-ca-ha
   885      884      936         1       119.880      4.033376E+02     ; C-C-H, prebuilt ca-ca-ha
   884      885      886         1       120.020      5.573088E+02     ; C-C-C, prebuilt ca-ca-ca
   884      885      937         1       119.880      4.033376E+02     ; C-C-H, prebuilt ca-ca-ha
   886      885      937         1       119.880      4.033376E+02     ; C-C-H, prebuilt ca-ca-ha
   885      886      887         1       120.020      5.573088E+02     ; C-C-C, prebuilt ca-ca-ca
   885      886      938         1       119.880      4.033376E+02     ; C-C-H, prebuilt ca-ca-ha
   887      886      938         1       119.880      4.033376E+02     ; C-C-H, prebuilt ca-ca-ha
   882      887      886         1       120.020      5.573088E+02     ; C-C-C, prebuilt ca-ca-ca
   882      887      888         1       119.200      5.824128E+02     ; C-C-O, prebuilt ca-ca-os
   886      887      888         1       119.200      5.824128E+02     ; C-C-O, prebuilt ca-ca-os
   887      888      889         1       119.890      5.313680E+02     ; C-O-C, prebuilt ca-os-ca
   888      889      890         1       119.200      5.824128E+02     ; O-C-C, prebuilt ca-ca-os
   888      889      894         1       119.200      5.824128E+02     ; O-C-C, prebuilt ca-ca-os
   890      889      894         1       120.020      5.573088E+02     ; C-C-C, prebuilt ca-ca-ca
   889      890      891         1       120.020      5.573088E+02     ; C-C-C, prebuilt ca-ca-ca
   889      890      939         1       119.880      4.033376E+02     ; C-C-H, prebuilt ca-ca-ha
   891      890      939         1       119.880      4.033376E+02     ; C-C-H, prebuilt ca-ca-ha
   890      891      892         1       120.020      5.573088E+02     ; C-C-C, prebuilt ca-ca-ca
   890      891      940         1       119.880      4.033376E+02     ; C-C-H, prebuilt ca-ca-ha
   892      891      940         1       119.880      4.033376E+02     ; C-C-H, prebuilt ca-ca-ha
   891      892      893         1       120.020      5.573088E+02     ; C-C-C, prebuilt ca-ca-ca
   891      892      895         1       120.190      5.681872E+02     ; C-C-N, prebuilt ca-ca-n
   893      892      895         1       120.190      5.681872E+02     ; C-C-N, prebuilt ca-ca-n
   892      893      894         1       120.020      5.573088E+02     ; C-C-C, prebuilt ca-ca-ca
   892      893      941         1       119.880      4.033376E+02     ; C-C-H, prebuilt ca-ca-ha
   894      893      941         1       119.880      4.033376E+02     ; C-C-H, prebuilt ca-ca-ha
   889      894      893         1       120.020      5.573088E+02     ; C-C-C, prebuilt ca-ca-ca
   889      894      942         1       119.880      4.033376E+02     ; C-C-H, prebuilt ca-ca-ha
   893      894      942         1       119.880      4.033376E+02     ; C-C-H, prebuilt ca-ca-ha
   892      895      896         1       123.710      5.338784E+02     ; C-N-C, prebuilt c-n-ca
   892      895      943         1       116.000      3.983168E+02     ; C-N-H, prebuilt ca-n-hn
   896      895      943         1       117.550      4.041744E+02     ; C-N-H, prebuilt c-n-hn
   895      896      897         1       123.050      6.209056E+02     ; N-C-O, prebuilt n-c-o
   895      896      898         1       115.250      5.665136E+02     ; N-C-C, prebuilt ca-c-n
   897      896      898         1       122.600      5.748816E+02     ; O-C-C, prebuilt ca-c-o
   896      898      899         1       120.330      5.380624E+02     ; C-C-C, prebuilt c-ca-ca
   896      898      903         1       120.330      5.380624E+02     ; C-C-C, prebuilt c-ca-ca
   899      898      903         1       120.020      5.573088E+02     ; C-C-C, prebuilt ca-ca-ca
   898      899      900         1       120.020      5.573088E+02     ; C-C-C, prebuilt ca-ca-ca
   898      899      944         1       119.880      4.033376E+02     ; C-C-H, prebuilt ca-ca-ha
   900      899      944         1       119.880      4.033376E+02     ; C-C-H, prebuilt ca-ca-ha
   899      900      901         1       120.020      5.573088E+02     ; C-C-C, prebuilt ca-ca-ca
   899      900      945         1       119.880      4.033376E+02     ; C-C-H, prebuilt ca-ca-ha
   901      900      945         1       119.880      4.033376E+02     ; C-C-H, prebuilt ca-ca-ha
   900      901      902         1       120.020      5.573088E+02     ; C-C-C, prebuilt ca-ca-ca
   900      901      904         1       120.190      5.681872E+02     ; C-C-N, prebuilt ca-ca-n
   902      901      904         1       120.190      5.681872E+02     ; C-C-N, prebuilt ca-ca-n
   901      902      903         1       120.020      5.573088E+02     ; C-C-C, prebuilt ca-ca-ca
   901      902      946         1       119.880      4.033376E+02     ; C-C-H, prebuilt ca-ca-ha
   903      902      946         1       119.880      4.033376E+02     ; C-C-H, prebuilt ca-ca-ha
   898      903      902         1       120.020      5.573088E+02     ; C-C-C, prebuilt ca-ca-ca
   898      903      947         1       119.880      4.033376E+02     ; C-C-H, prebuilt ca-ca-ha
   902      903      947         1       119.880      4.033376E+02     ; C-C-H, prebuilt ca-ca-ha
   901      904      905         1       123.710      5.338784E+02     ; C-N-C, prebuilt c-n-ca
   901      904      909         1       123.710      5.338784E+02     ; C-N-C, prebuilt c-n-ca
   905      904      909         1       127.080      5.330416E+02     ; C-N-C, prebuilt c-n-c
   904      905      906         1       123.050      6.209056E+02     ; N-C-O, prebuilt n-c-o
   904      905      907         1       115.250      5.665136E+02     ; N-C-C, prebuilt ca-c-n
   906      905      907         1       122.600      5.748816E+02     ; O-C-C, prebuilt ca-c-o
   905      907      908         1       120.330      5.380624E+02     ; C-C-C, prebuilt c-ca-ca
   905      907      914         1       120.330      5.380624E+02     ; C-C-C, prebuilt c-ca-ca
   908      907      914         1       120.020      5.573088E+02     ; C-C-C, prebuilt ca-ca-ca
   907      908      909         1       120.330      5.380624E+02     ; C-C-C, prebuilt c-ca-ca
   907      908      911         1       120.020      5.573088E+02     ; C-C-C, prebuilt ca-ca-ca
   909      908      911         1       120.330      5.380624E+02     ; C-C-C, prebuilt c-ca-ca
   904      909      908         1       115.250      5.665136E+02     ; N-C-C, prebuilt ca-c-n
   904      909      910         1       123.050      6.209056E+02     ; N-C-O, prebuilt n-c-o
   908      909      910         1       122.600      5.748816E+02     ; C-C-O, prebuilt ca-c-o
   908      911      912         1       120.690      5.547984E+02     ; C-C-C, prebuilt ca-ca-cp
   908      911      948         1       119.880      4.033376E+02     ; C-C-H, prebuilt ca-ca-ha
   912      911      948         1       119.860      4.016640E+02     ; C-C-H, prebuilt cp-ca-ha
   911      912      913         1       118.380      5.581456E+02     ; C-C-C, prebuilt ca-cp-ca
   911      912      954         1       121.110      5.355520E+02     ; C-C-C, prebuilt ca-cp-cp
   913      912      954         1       121.110      5.355520E+02     ; C-C-C, prebuilt ca-cp-cp
   912      913      914         1       120.690      5.547984E+02     ; C-C-C, prebuilt ca-ca-cp
   912      913      949         1       119.860      4.016640E+02     ; C-C-H, prebuilt cp-ca-ha
   914      913      949         1       119.880      4.033376E+02     ; C-C-H, prebuilt ca-ca-ha
   907      914      913         1       120.020      5.573088E+02     ; C-C-C, prebuilt ca-ca-ca
   907      914      950         1       119.880      4.033376E+02     ; C-C-H, prebuilt ca-ca-ha
   913      914      950         1       119.880      4.033376E+02     ; C-C-H, prebuilt ca-ca-ha
   858      915      951         1       110.470      3.916224E+02     ; C-C-H, prebuilt ca-c3-hc
   858      915      952         1       110.470      3.916224E+02     ; C-C-H, prebuilt ca-c3-hc
   858      915      953         1       110.470      3.916224E+02     ; C-C-H, prebuilt ca-c3-hc
   951      915      952         1       107.580      3.296992E+02     ; H-C-H, prebuilt hc-c3-hc
   951      915      953         1       107.580      3.296992E+02     ; H-C-H, prebuilt hc-c3-hc
   952      915      953         1       107.580      3.296992E+02     ; H-C-H, prebuilt hc-c3-hc
   912      954      955         1       121.110      5.355520E+02     ; C-C-C, prebuilt ca-cp-cp
   912      954      959         1       121.110      5.355520E+02     ; C-C-C, prebuilt ca-cp-cp
   955      954      959         1       118.380      5.581456E+02     ; C-C-C, prebuilt ca-cp-ca
   954      955      956         1       120.690      5.547984E+02     ; C-C-C, prebuilt ca-ca-cp
   954      955     1035         1       119.860      4.016640E+02     ; C-C-H, prebuilt cp-ca-ha
   956      955     1035         1       119.880      4.033376E+02     ; C-C-H, prebuilt ca-ca-ha
   955      956      957         1       120.020      5.573088E+02     ; C-C-C, prebuilt ca-ca-ca
   955      956     1036         1       119.880      4.033376E+02     ; C-C-H, prebuilt ca-ca-ha
   957      956     1036         1       119.880      4.033376E+02     ; C-C-H, prebuilt ca-ca-ha
   956      957      958         1       120.020      5.573088E+02     ; C-C-C, prebuilt ca-ca-ca
   956      957      963         1       120.330      5.380624E+02     ; C-C-C, prebuilt c-ca-ca
   958      957      963         1       120.330      5.380624E+02     ; C-C-C, prebuilt c-ca-ca
   957      958      959         1       120.020      5.573088E+02     ; C-C-C, prebuilt ca-ca-ca
   957      958      960         1       120.330      5.380624E+02     ; C-C-C, prebuilt c-ca-ca
   959      958      960         1       120.330      5.380624E+02     ; C-C-C, prebuilt c-ca-ca
   954      959      958         1       120.690      5.547984E+02     ; C-C-C, prebuilt ca-ca-cp
   954      959     1037         1       119.860      4.016640E+02     ; C-C-H, prebuilt cp-ca-ha
   958      959     1037         1       119.880      4.033376E+02     ; C-C-H, prebuilt ca-ca-ha
   958      960      961         1       122.600      5.748816E+02     ; C-C-O, prebuilt ca-c-o
   958      960      962         1       115.250      5.665136E+02     ; C-C-N, prebuilt ca-c-n
   961      960      962         1       123.050      6.209056E+02     ; O-C-N, prebuilt n-c-o
   960      962      963         1       127.080      5.330416E+02     ; C-N-C, prebuilt c-n-c
   960      962      965         1       123.710      5.338784E+02     ; C-N-C, prebuilt c-n-ca
   963      962      965         1       123.710      5.338784E+02     ; C-N-C, prebuilt c-n-ca
   957      963      962         1       115.250      5.665136E+02     ; C-C-N, prebuilt ca-c-n
   957      963      964         1       122.600      5.748816E+02     ; C-C-O, prebuilt ca-c-o
   962      963      964         1       123.050      6.209056E+02     ; N-C-O, prebuilt n-c-o
   962      965      966         1       120.190      5.681872E+02     ; N-C-C, prebuilt ca-ca-n
   962      965      970         1       120.190      5.681872E+02     ; N-C-C, prebuilt ca-ca-n
   966      965      970         1       120.020      5.573088E+02     ; C-C-C, prebuilt ca-ca-ca
   965      966      967         1       120.020      5.573088E+02     ; C-C-C, prebuilt ca-ca-ca
   965      966     1038         1       119.880      4.033376E+02     ; C-C-H, prebuilt ca-ca-ha
   967      966     1038         1       119.880      4.033376E+02     ; C-C-H, prebuilt ca-ca-ha
   966      967      968         1       120.020      5.573088E+02     ; C-C-C, prebuilt ca-ca-ca
   966      967     1039         1       119.880      4.033376E+02     ; C-C-H, prebuilt ca-ca-ha
   968      967     1039         1       119.880      4.033376E+02     ; C-C-H, prebuilt ca-ca-ha
   967      968      969         1       120.020      5.573088E+02     ; C-C-C, prebuilt ca-ca-ca
   967      968      971         1       120.190      5.681872E+02     ; C-C-N, prebuilt ca-ca-n
   969      968      971         1       120.190      5.681872E+02     ; C-C-N, prebuilt ca-ca-n
   968      969      970         1       120.020      5.573088E+02     ; C-C-C, prebuilt ca-ca-ca
   968      969     1040         1       119.880      4.033376E+02     ; C-C-H, prebuilt ca-ca-ha
   970      969     1040         1       119.880      4.033376E+02     ; C-C-H, prebuilt ca-ca-ha
   965      970      969         1       120.020      5.573088E+02     ; C-C-C, prebuilt ca-ca-ca
   965      970     1041         1       119.880      4.033376E+02     ; C-C-H, prebuilt ca-ca-ha
   969      970     1041         1       119.880      4.033376E+02     ; C-C-H, prebuilt ca-ca-ha
   968      971      972         1       123.710      5.338784E+02     ; C-N-C, prebuilt c-n-ca
   968      971     1042         1       116.000      3.983168E+02     ; C-N-H, prebuilt ca-n-hn
   972      971     1042         1       117.550      4.041744E+02     ; C-N-H, prebuilt c-n-hn
   971      972      973         1       123.050      6.209056E+02     ; N-C-O, prebuilt n-c-o
   971      972      974         1       115.250      5.665136E+02     ; N-C-C, prebuilt ca-c-n
   973      972      974         1       122.600      5.748816E+02     ; O-C-C, prebuilt ca-c-o
   972      974      975         1       120.330      5.380624E+02     ; C-C-C, prebuilt c-ca-ca
   972      974      979         1       120.330      5.380624E+02     ; C-C-C, prebuilt c-ca-ca
   975      974      979         1       120.020      5.573088E+02     ; C-C-C, prebuilt ca-ca-ca
   974      975      976         1       120.020      5.573088E+02     ; C-C-C, prebuilt ca-ca-ca
   974      975     1043         1       119.880      4.033376E+02     ; C-C-H, prebuilt ca-ca-ha
   976      975     1043         1       119.880      4.033376E+02     ; C-C-H, prebuilt ca-ca-ha
   975      976      977         1       120.020      5.573088E+02     ; C-C-C, prebuilt ca-ca-ca
   975      976     1044         1       119.880      4.033376E+02     ; C-C-H, prebuilt ca-ca-ha
   977      976     1044         1       119.880      4.033376E+02     ; C-C-H, prebuilt ca-ca-ha
   976      977      978         1       120.020      5.573088E+02     ; C-C-C, prebuilt ca-ca-ca
   976      977     1034         1       120.770      5.313680E+02     ; C-C-C, prebuilt c3-ca-ca
   978      977     1034         1       120.770      5.313680E+02     ; C-C-C, prebuilt c3-ca-ca
   977      978      979         1       120.020      5.573088E+02     ; C-C-C, prebuilt ca-ca-ca
   977      978     1045         1       119.880      4.033376E+02     ; C-C-H, prebuilt ca-ca-ha
   979      978     1045         1       119.880      4.033376E+02     ; C-C-H, prebuilt ca-ca-ha
   974      979      978         1       120.020      5.573088E+02     ; C-C-C, prebuilt ca-ca-ca
   974      979      980         1       120.190      5.681872E+02     ; C-C-N, prebuilt ca-ca-n
   978      979      980         1       120.190      5.681872E+02     ; C-C-N, prebuilt ca-ca-n
   979      980      981         1       123.710      5.338784E+02     ; C-N-C, prebuilt c-n-ca
   979      980      985         1       123.710      5.338784E+02     ; C-N-C, prebuilt c-n-ca
   981      980      985         1       127.080      5.330416E+02     ; C-N-C, prebuilt c-n-c
   980      981      982         1       123.050      6.209056E+02     ; N-C-O, prebuilt n-c-o
   980      981      983         1       115.250      5.665136E+02     ; N-C-C, prebuilt ca-c-n
   982      981      983         1       122.600      5.748816E+02     ; O-C-C, prebuilt ca-c-o
   981      983      984         1       120.330      5.380624E+02     ; C-C-C, prebuilt c-ca-ca
   981      983      990         1       120.330      5.380624E+02     ; C-C-C, prebuilt c-ca-ca
   984      983      990         1       120.020      5.573088E+02     ; C-C-C, prebuilt ca-ca-ca
   983      984      985         1       120.330      5.380624E+02     ; C-C-C, prebuilt c-ca-ca
   983      984      987         1       120.020      5.573088E+02     ; C-C-C, prebuilt ca-ca-ca
   985      984      987         1       120.330      5.380624E+02     ; C-C-C, prebuilt c-ca-ca
   980      985      984         1       115.250      5.665136E+02     ; N-C-C, prebuilt ca-c-n
   980      985      986         1       123.050      6.209056E+02     ; N-C-O, prebuilt n-c-o
   984      985      986         1       122.600      5.748816E+02     ; C-C-O, prebuilt ca-c-o
   984      987      988         1       120.020      5.573088E+02     ; C-C-C, prebuilt ca-ca-ca
   984      987     1046         1       119.880      4.033376E+02     ; C-C-H, prebuilt ca-ca-ha
   988      987     1046         1       119.880      4.033376E+02     ; C-C-H, prebuilt ca-ca-ha
   987      988      989         1       120.020      5.573088E+02     ; C-C-C, prebuilt ca-ca-ca
   987      988      991         1       120.330      5.380624E+02     ; C-C-C, prebuilt c-ca-ca
   989      988      991         1       120.330      5.380624E+02     ; C-C-C, prebuilt c-ca-ca
   988      989      990         1       120.020      5.573088E+02     ; C-C-C, prebuilt ca-ca-ca
   988      989     1047         1       119.880      4.033376E+02     ; C-C-H, prebuilt ca-ca-ha
   990      989     1047         1       119.880      4.033376E+02     ; C-C-H, prebuilt ca-ca-ha
   983      990      989         1       120.020      5.573088E+02     ; C-C-C, prebuilt ca-ca-ca
   983      990     1048         1       119.880      4.033376E+02     ; C-C-H, prebuilt ca-ca-ha
   989      990     1048         1       119.880      4.033376E+02     ; C-C-H, prebuilt ca-ca-ha
   988      991      992         1       122.600      5.748816E+02     ; C-C-O, prebuilt ca-c-o
   988      991      993         1       115.250      5.665136E+02     ; C-C-N, prebuilt ca-c-n
   992      991      993         1       123.050      6.209056E+02     ; O-C-N, prebuilt n-c-o
   991      993      994         1       123.710      5.338784E+02     ; C-N-C, prebuilt c-n-ca
   991      993     1049         1       117.550      4.041744E+02     ; C-N-H, prebuilt c-n-hn
   994      993     1049         1       116.000      3.983168E+02     ; C-N-H, prebuilt ca-n-hn
   993      994      995         1       120.190      5.681872E+02     ; N-C-C, prebuilt ca-ca-n
   993      994      999         1       120.190      5.681872E+02     ; N-C-C, prebuilt ca-ca-n
   995      994      999         1       120.020      5.573088E+02     ; C-C-C, prebuilt ca-ca-ca
   994      995      996         1       120.020      5.573088E+02     ; C-C-C, prebuilt ca-ca-ca
   994      995     1050         1       119.880      4.033376E+02     ; C-C-H, prebuilt ca-ca-ha
   996      995     1050         1       119.880      4.033376E+02     ; C-C-H, prebuilt ca-ca-ha
   995      996      997         1       120.020      5.573088E+02     ; C-C-C, prebuilt ca-ca-ca
   995      996     1051         1       119.880      4.033376E+02     ; C-C-H, prebuilt ca-ca-ha
   997      996     1051         1       119.880      4.033376E+02     ; C-C-H, prebuilt ca-ca-ha
   996      997      998         1       120.020      5.573088E+02     ; C-C-C, prebuilt ca-ca-ca
   996      997     1000         1       119.200      5.824128E+02     ; C-C-O, prebuilt ca-ca-os
   998      997     1000         1       119.200      5.824128E+02     ; C-C-O, prebuilt ca-ca-os
   997      998      999         1       120.020      5.573088E+02     ; C-C-C, prebuilt ca-ca-ca
   997      998     1052         1       119.880      4.033376E+02     ; C-C-H, prebuilt ca-ca-ha
   999      998     1052         1       119.880      4.033376E+02     ; C-C-H, prebuilt ca-ca-ha
   994      999      998         1       120.020      5.573088E+02     ; C-C-C, prebuilt ca-ca-ca
   994      999     1053         1       119.880      4.033376E+02     ; C-C-H, prebuilt ca-ca-ha
   998      999     1053         1       119.880      4.033376E+02     ; C-C-H, prebuilt ca-ca-ha
   997     1000     1001         1       119.890      5.313680E+02     ; C-O-C, prebuilt ca-os-ca
  1000     1001     1002         1       119.200      5.824128E+02     ; O-C-C, prebuilt ca-ca-os
  1000     1001     1006         1       119.200      5.824128E+02     ; O-C-C, prebuilt ca-ca-os
  1002     1001     1006         1       120.020      5.573088E+02     ; C-C-C, prebuilt ca-ca-ca
  1001     1002     1003         1       120.020      5.573088E+02     ; C-C-C, prebuilt ca-ca-ca
  1001     1002     1054         1       119.880      4.033376E+02     ; C-C-H, prebuilt ca-ca-ha
  1003     1002     1054         1       119.880      4.033376E+02     ; C-C-H, prebuilt ca-ca-ha
  1002     1003     1004         1       120.020      5.573088E+02     ; C-C-C, prebuilt ca-ca-ca
  1002     1003     1055         1       119.880      4.033376E+02     ; C-C-H, prebuilt ca-ca-ha
  1004     1003     1055         1       119.880      4.033376E+02     ; C-C-H, prebuilt ca-ca-ha
  1003     1004     1005         1       120.020      5.573088E+02     ; C-C-C, prebuilt ca-ca-ca
  1003     1004     1056         1       119.880      4.033376E+02     ; C-C-H, prebuilt ca-ca-ha
  1005     1004     1056         1       119.880      4.033376E+02     ; C-C-H, prebuilt ca-ca-ha
  1004     1005     1006         1       120.020      5.573088E+02     ; C-C-C, prebuilt ca-ca-ca
  1004     1005     1057         1       119.880      4.033376E+02     ; C-C-H, prebuilt ca-ca-ha
  1006     1005     1057         1       119.880      4.033376E+02     ; C-C-H, prebuilt ca-ca-ha
  1001     1006     1005         1       120.020      5.573088E+02     ; C-C-C, prebuilt ca-ca-ca
  1001     1006     1007         1       119.200      5.824128E+02     ; C-C-O, prebuilt ca-ca-os
  1005     1006     1007         1       119.200      5.824128E+02     ; C-C-O, prebuilt ca-ca-os
  1006     1007     1008         1       119.890      5.313680E+02     ; C-O-C, prebuilt ca-os-ca
  1007     1008     1009         1       119.200      5.824128E+02     ; O-C-C, prebuilt ca-ca-os
  1007     1008     1013         1       119.200      5.824128E+02     ; O-C-C, prebuilt ca-ca-os
  1009     1008     1013         1       120.020      5.573088E+02     ; C-C-C, prebuilt ca-ca-ca
  1008     1009     1010         1       120.020      5.573088E+02     ; C-C-C, prebuilt ca-ca-ca
  1008     1009     1058         1       119.880      4.033376E+02     ; C-C-H, prebuilt ca-ca-ha
  1010     1009     1058         1       119.880      4.033376E+02     ; C-C-H, prebuilt ca-ca-ha
  1009     1010     1011         1       120.020      5.573088E+02     ; C-C-C, prebuilt ca-ca-ca
  1009     1010     1059         1       119.880      4.033376E+02     ; C-C-H, prebuilt ca-ca-ha
  1011     1010     1059         1       119.880      4.033376E+02     ; C-C-H, prebuilt ca-ca-ha
  1010     1011     1012         1       120.020      5.573088E+02     ; C-C-C, prebuilt ca-ca-ca
  1010     1011     1014         1       120.190      5.681872E+02     ; C-C-N, prebuilt ca-ca-n
  1012     1011     1014         1       120.190      5.681872E+02     ; C-C-N, prebuilt ca-ca-n
  1011     1012     1013         1       120.020      5.573088E+02     ; C-C-C, prebuilt ca-ca-ca
  1011     1012     1060         1       119.880      4.033376E+02     ; C-C-H, prebuilt ca-ca-ha
  1013     1012     1060         1       119.880      4.033376E+02     ; C-C-H, prebuilt ca-ca-ha
  1008     1013     1012         1       120.020      5.573088E+02     ; C-C-C, prebuilt ca-ca-ca
  1008     1013     1061         1       119.880      4.033376E+02     ; C-C-H, prebuilt ca-ca-ha
  1012     1013     1061         1       119.880      4.033376E+02     ; C-C-H, prebuilt ca-ca-ha
  1011     1014     1015         1       123.710      5.338784E+02     ; C-N-C, prebuilt c-n-ca
  1011     1014     1062         1       116.000      3.983168E+02     ; C-N-H, prebuilt ca-n-hn
  1015     1014     1062         1       117.550      4.041744E+02     ; C-N-H, prebuilt c-n-hn
  1014     1015     1016         1       123.050      6.209056E+02     ; N-C-O, prebuilt n-c-o
  1014     1015     1017         1       115.250      5.665136E+02     ; N-C-C, prebuilt ca-c-n
  1016     1015     1017         1       122.600      5.748816E+02     ; O-C-C, prebuilt ca-c-o
  1015     1017     1018         1       120.330      5.380624E+02     ; C-C-C, prebuilt c-ca-ca
  1015     1017     1022         1       120.330      5.380624E+02     ; C-C-C, prebuilt c-ca-ca
  1018     1017     1022         1       120.020      5.573088E+02     ; C-C-C, prebuilt ca-ca-ca
  1017     1018     1019         1       120.020      5.573088E+02     ; C-C-C, prebuilt ca-ca-ca
  1017     1018     1063         1       119.880      4.033376E+02     ; C-C-H, prebuilt ca-ca-ha
  1019     1018     1063         1       119.880      4.033376E+02     ; C-C-H, prebuilt ca-ca-ha
  1018     1019     1020         1       120.020      5.573088E+02     ; C-C-C, prebuilt ca-ca-ca
  1018     1019     1064         1       119.880      4.033376E+02     ; C-C-H, prebuilt ca-ca-ha
  1020     1019     1064         1       119.880      4.033376E+02     ; C-C-H, prebuilt ca-ca-ha
  1019     1020     1021         1       120.020      5.573088E+02     ; C-C-C, prebuilt ca-ca-ca
  1019     1020     1023         1       120.190      5.681872E+02     ; C-C-N, prebuilt ca-ca-n
  1021     1020     1023         1       120.190      5.681872E+02     ; C-C-N, prebuilt ca-ca-n
  1020     1021     1022         1       120.020      5.573088E+02     ; C-C-C, prebuilt ca-ca-ca
  1020     1021     1065         1       119.880      4.033376E+02     ; C-C-H, prebuilt ca-ca-ha
  1022     1021     1065         1       119.880      4.033376E+02     ; C-C-H, prebuilt ca-ca-ha
  1017     1022     1021         1       120.020      5.573088E+02     ; C-C-C, prebuilt ca-ca-ca
  1017     1022     1066         1       119.880      4.033376E+02     ; C-C-H, prebuilt ca-ca-ha
  1021     1022     1066         1       119.880      4.033376E+02     ; C-C-H, prebuilt ca-ca-ha
  1020     1023     1024         1       123.710      5.338784E+02     ; C-N-C, prebuilt c-n-ca
  1020     1023     1028         1       123.710      5.338784E+02     ; C-N-C, prebuilt c-n-ca
  1024     1023     1028         1       127.080      5.330416E+02     ; C-N-C, prebuilt c-n-c
  1023     1024     1025         1       123.050      6.209056E+02     ; N-C-O, prebuilt n-c-o
  1023     1024     1026         1       115.250      5.665136E+02     ; N-C-C, prebuilt ca-c-n
  1025     1024     1026         1       122.600      5.748816E+02     ; O-C-C, prebuilt ca-c-o
  1024     1026     1027         1       120.330      5.380624E+02     ; C-C-C, prebuilt c-ca-ca
  1024     1026     1033         1       120.330      5.380624E+02     ; C-C-C, prebuilt c-ca-ca
  1027     1026     1033         1       120.020      5.573088E+02     ; C-C-C, prebuilt ca-ca-ca
  1026     1027     1028         1       120.330      5.380624E+02     ; C-C-C, prebuilt c-ca-ca
  1026     1027     1030         1       120.020      5.573088E+02     ; C-C-C, prebuilt ca-ca-ca
  1028     1027     1030         1       120.330      5.380624E+02     ; C-C-C, prebuilt c-ca-ca
  1023     1028     1027         1       115.250      5.665136E+02     ; N-C-C, prebuilt ca-c-n
  1023     1028     1029         1       123.050      6.209056E+02     ; N-C-O, prebuilt n-c-o
  1027     1028     1029         1       122.600      5.748816E+02     ; C-C-O, prebuilt ca-c-o
  1027     1030     1031         1       120.690      5.547984E+02     ; C-C-C, prebuilt ca-ca-cp
  1027     1030     1067         1       119.880      4.033376E+02     ; C-C-H, prebuilt ca-ca-ha
  1031     1030     1067         1       119.860      4.016640E+02     ; C-C-H, prebuilt cp-ca-ha
  1030     1031     1032         1       118.380      5.581456E+02     ; C-C-C, prebuilt ca-cp-ca
  1030     1031     1073         1       121.110      5.355520E+02     ; C-C-C, prebuilt ca-cp-cp
  1032     1031     1073         1       121.110      5.355520E+02     ; C-C-C, prebuilt ca-cp-cp
  1031     1032     1033         1       120.690      5.547984E+02     ; C-C-C, prebuilt ca-ca-cp
  1031     1032     1068         1       119.860      4.016640E+02     ; C-C-H, prebuilt cp-ca-ha
  1033     1032     1068         1       119.880      4.033376E+02     ; C-C-H, prebuilt ca-ca-ha
  1026     1033     1032         1       120.020      5.573088E+02     ; C-C-C, prebuilt ca-ca-ca
  1026     1033     1069         1       119.880      4.033376E+02     ; C-C-H, prebuilt ca-ca-ha
  1032     1033     1069         1       119.880      4.033376E+02     ; C-C-H, prebuilt ca-ca-ha
   977     1034     1070         1       110.470      3.916224E+02     ; C-C-H, prebuilt ca-c3-hc
   977     1034     1071         1       110.470      3.916224E+02     ; C-C-H, prebuilt ca-c3-hc
   977     1034     1072         1       110.470      3.916224E+02     ; C-C-H, prebuilt ca-c3-hc
  1070     1034     1071         1       107.580      3.296992E+02     ; H-C-H, prebuilt hc-c3-hc
  1070     1034     1072         1       107.580      3.296992E+02     ; H-C-H, prebuilt hc-c3-hc
  1071     1034     1072         1       107.580      3.296992E+02     ; H-C-H, prebuilt hc-c3-hc
  1031     1073     1074         1       121.110      5.355520E+02     ; C-C-C, prebuilt ca-cp-cp
  1031     1073     1078         1       121.110      5.355520E+02     ; C-C-C, prebuilt ca-cp-cp
  1074     1073     1078         1       118.380      5.581456E+02     ; C-C-C, prebuilt ca-cp-ca
  1073     1074     1075         1       120.690      5.547984E+02     ; C-C-C, prebuilt ca-ca-cp
  1073     1074     1154         1       119.860      4.016640E+02     ; C-C-H, prebuilt cp-ca-ha
  1075     1074     1154         1       119.880      4.033376E+02     ; C-C-H, prebuilt ca-ca-ha
  1074     1075     1076         1       120.020      5.573088E+02     ; C-C-C, prebuilt ca-ca-ca
  1074     1075     1155         1       119.880      4.033376E+02     ; C-C-H, prebuilt ca-ca-ha
  1076     1075     1155         1       119.880      4.033376E+02     ; C-C-H, prebuilt ca-ca-ha
  1075     1076     1077         1       120.020      5.573088E+02     ; C-C-C, prebuilt ca-ca-ca
  1075     1076     1082         1       120.330      5.380624E+02     ; C-C-C, prebuilt c-ca-ca
  1077     1076     1082         1       120.330      5.380624E+02     ; C-C-C, prebuilt c-ca-ca
  1076     1077     1078         1       120.020      5.573088E+02     ; C-C-C, prebuilt ca-ca-ca
  1076     1077     1079         1       120.330      5.380624E+02     ; C-C-C, prebuilt c-ca-ca
  1078     1077     1079         1       120.330      5.380624E+02     ; C-C-C, prebuilt c-ca-ca
  1073     1078     1077         1       120.690      5.547984E+02     ; C-C-C, prebuilt ca-ca-cp
  1073     1078     1156         1       119.860      4.016640E+02     ; C-C-H, prebuilt cp-ca-ha
  1077     1078     1156         1       119.880      4.033376E+02     ; C-C-H, prebuilt ca-ca-ha
  1077     1079     1080         1       122.600      5.748816E+02     ; C-C-O, prebuilt ca-c-o
  1077     1079     1081         1       115.250      5.665136E+02     ; C-C-N, prebuilt ca-c-n
  1080     1079     1081         1       123.050      6.209056E+02     ; O-C-N, prebuilt n-c-o
  1079     1081     1082         1       127.080      5.330416E+02     ; C-N-C, prebuilt c-n-c
  1079     1081     1084         1       123.710      5.338784E+02     ; C-N-C, prebuilt c-n-ca
  1082     1081     1084         1       123.710      5.338784E+02     ; C-N-C, prebuilt c-n-ca
  1076     1082     1081         1       115.250      5.665136E+02     ; C-C-N, prebuilt ca-c-n
  1076     1082     1083         1       122.600      5.748816E+02     ; C-C-O, prebuilt ca-c-o
  1081     1082     1083         1       123.050      6.209056E+02     ; N-C-O, prebuilt n-c-o
  1081     1084     1085         1       120.190      5.681872E+02     ; N-C-C, prebuilt ca-ca-n
  1081     1084     1089         1       120.190      5.681872E+02     ; N-C-C, prebuilt ca-ca-n
  1085     1084     1089         1       120.020      5.573088E+02     ; C-C-C, prebuilt ca-ca-ca
  1084     1085     1086         1       120.020      5.573088E+02     ; C-C-C, prebuilt ca-ca-ca
  1084     1085     1157         1       119.880      4.033376E+02     ; C-C-H, prebuilt ca-ca-ha
  1086     1085     1157         1       119.880      4.033376E+02     ; C-C-H, prebuilt ca-ca-ha
  1085     1086     1087         1       120.020      5.573088E+02     ; C-C-C, prebuilt ca-ca-ca
  1085     1086     1158         1       119.880      4.033376E+02     ; C-C-H, prebuilt ca-ca-ha
  1087     1086     1158         1       119.880      4.033376E+02     ; C-C-H, prebuilt ca-ca-ha
  1086     1087     1088         1       120.020      5.573088E+02     ; C-C-C, prebuilt ca-ca-ca
  1086     1087     1090         1       120.190      5.681872E+02     ; C-C-N, prebuilt ca-ca-n
  1088     1087     1090         1       120.190      5.681872E+02     ; C-C-N, prebuilt ca-ca-n
  1087     1088     1089         1       120.020      5.573088E+02     ; C-C-C, prebuilt ca-ca-ca
  1087     1088     1159         1       119.880      4.033376E+02     ; C-C-H, prebuilt ca-ca-ha
  1089     1088     1159         1       119.880      4.033376E+02     ; C-C-H, prebuilt ca-ca-ha
  1084     1089     1088         1       120.020      5.573088E+02     ; C-C-C, prebuilt ca-ca-ca
  1084     1089     1160         1       119.880      4.033376E+02     ; C-C-H, prebuilt ca-ca-ha
  1088     1089     1160         1       119.880      4.033376E+02     ; C-C-H, prebuilt ca-ca-ha
  1087     1090     1091         1       123.710      5.338784E+02     ; C-N-C, prebuilt c-n-ca
  1087     1090     1161         1       116.000      3.983168E+02     ; C-N-H, prebuilt ca-n-hn
  1091     1090     1161         1       117.550      4.041744E+02     ; C-N-H, prebuilt c-n-hn
  1090     1091     1092         1       123.050      6.209056E+02     ; N-C-O, prebuilt n-c-o
  1090     1091     1093         1       115.250      5.665136E+02     ; N-C-C, prebuilt ca-c-n
  1092     1091     1093         1       122.600      5.748816E+02     ; O-C-C, prebuilt ca-c-o
  1091     1093     1094         1       120.330      5.380624E+02     ; C-C-C, prebuilt c-ca-ca
  1091     1093     1098         1       120.330      5.380624E+02     ; C-C-C, prebuilt c-ca-ca
  1094     1093     1098         1       120.020      5.573088E+02     ; C-C-C, prebuilt ca-ca-ca
  1093     1094     1095         1       120.020      5.573088E+02     ; C-C-C, prebuilt ca-ca-ca
  1093     1094     1162         1       119.880      4.033376E+02     ; C-C-H, prebuilt ca-ca-ha
  1095     1094     1162         1       119.880      4.033376E+02     ; C-C-H, prebuilt ca-ca-ha
  1094     1095     1096         1       120.020      5.573088E+02     ; C-C-C, prebuilt ca-ca-ca
  1094     1095     1163         1       119.880      4.033376E+02     ; C-C-H, prebuilt ca-ca-ha
  1096     1095     1163         1       119.880      4.033376E+02     ; C-C-H, prebuilt ca-ca-ha
  1095     1096     1097         1       120.020      5.573088E+02     ; C-C-C, prebuilt ca-ca-ca
  1095     1096     1153         1       120.770      5.313680E+02     ; C-C-C, prebuilt c3-ca-ca
  1097     1096     1153         1       120.770      5.313680E+02     ; C-C-C, prebuilt c3-ca-ca
  1096     1097     1098         1       120.020      5.573088E+02     ; C-C-C, prebuilt ca-ca-ca
  1096     1097     1164         1       119.880      4.033376E+02     ; C-C-H, prebuilt ca-ca-ha
  1098     1097     1164         1       119.880      4.033376E+02     ; C-C-H, prebuilt ca-ca-ha
  1093     1098     1097         1       120.020      5.573088E+02     ; C-C-C, prebuilt ca-ca-ca
  1093     1098     1099         1       120.190      5.681872E+02     ; C-C-N, prebuilt ca-ca-n
  1097     1098     1099         1       120.190      5.681872E+02     ; C-C-N, prebuilt ca-ca-n
  1098     1099     1100         1       123.710      5.338784E+02     ; C-N-C, prebuilt c-n-ca
  1098     1099     1104         1       123.710      5.338784E+02     ; C-N-C, prebuilt c-n-ca
  1100     1099     1104         1       127.080      5.330416E+02     ; C-N-C, prebuilt c-n-c
  1099     1100     1101         1       123.050      6.209056E+02     ; N-C-O, prebuilt n-c-o
  1099     1100     1102         1       115.250      5.665136E+02     ; N-C-C, prebuilt ca-c-n
  1101     1100     1102         1       122.600      5.748816E+02     ; O-C-C, prebuilt ca-c-o
  1100     1102     1103         1       120.330      5.380624E+02     ; C-C-C, prebuilt c-ca-ca
  1100     1102     1109         1       120.330      5.380624E+02     ; C-C-C, prebuilt c-ca-ca
  1103     1102     1109         1       120.020      5.573088E+02     ; C-C-C, prebuilt ca-ca-ca
  1102     1103     1104         1       120.330      5.380624E+02     ; C-C-C, prebuilt c-ca-ca
  1102     1103     1106         1       120.020      5.573088E+02     ; C-C-C, prebuilt ca-ca-ca
  1104     1103     1106         1       120.330      5.380624E+02     ; C-C-C, prebuilt c-ca-ca
  1099     1104     1103         1       115.250      5.665136E+02     ; N-C-C, prebuilt ca-c-n
  1099     1104     1105         1       123.050      6.209056E+02     ; N-C-O, prebuilt n-c-o
  1103     1104     1105         1       122.600      5.748816E+02     ; C-C-O, prebuilt ca-c-o
  1103     1106     1107         1       120.020      5.573088E+02     ; C-C-C, prebuilt ca-ca-ca
  1103     1106     1165         1       119.880      4.033376E+02     ; C-C-H, prebuilt ca-ca-ha
  1107     1106     1165         1       119.880      4.033376E+02     ; C-C-H, prebuilt ca-ca-ha
  1106     1107     1108         1       120.020      5.573088E+02     ; C-C-C, prebuilt ca-ca-ca
  1106     1107     1110         1       120.330      5.380624E+02     ; C-C-C, prebuilt c-ca-ca
  1108     1107     1110         1       120.330      5.380624E+02     ; C-C-C, prebuilt c-ca-ca
  1107     1108     1109         1       120.020      5.573088E+02     ; C-C-C, prebuilt ca-ca-ca
  1107     1108     1166         1       119.880      4.033376E+02     ; C-C-H, prebuilt ca-ca-ha
  1109     1108     1166         1       119.880      4.033376E+02     ; C-C-H, prebuilt ca-ca-ha
  1102     1109     1108         1       120.020      5.573088E+02     ; C-C-C, prebuilt ca-ca-ca
  1102     1109     1167         1       119.880      4.033376E+02     ; C-C-H, prebuilt ca-ca-ha
  1108     1109     1167         1       119.880      4.033376E+02     ; C-C-H, prebuilt ca-ca-ha
  1107     1110     1111         1       122.600      5.748816E+02     ; C-C-O, prebuilt ca-c-o
  1107     1110     1112         1       115.250      5.665136E+02     ; C-C-N, prebuilt ca-c-n
  1111     1110     1112         1       123.050      6.209056E+02     ; O-C-N, prebuilt n-c-o
  1110     1112     1113         1       123.710      5.338784E+02     ; C-N-C, prebuilt c-n-ca
  1110     1112     1168         1       117.550      4.041744E+02     ; C-N-H, prebuilt c-n-hn
  1113     1112     1168         1       116.000      3.983168E+02     ; C-N-H, prebuilt ca-n-hn
  1112     1113     1114         1       120.190      5.681872E+02     ; N-C-C, prebuilt ca-ca-n
  1112     1113     1118         1       120.190      5.681872E+02     ; N-C-C, prebuilt ca-ca-n
  1114     1113     1118         1       120.020      5.573088E+02     ; C-C-C, prebuilt ca-ca-ca
  1113     1114     1115         1       120.020      5.573088E+02     ; C-C-C, prebuilt ca-ca-ca
  1113     1114     1169         1       119.880      4.033376E+02     ; C-C-H, prebuilt ca-ca-ha
  1115     1114     1169         1       119.880      4.033376E+02     ; C-C-H, prebuilt ca-ca-ha
  1114     1115     1116         1       120.020      5.573088E+02     ; C-C-C, prebuilt ca-ca-ca
  1114     1115     1170         1       119.880      4.033376E+02     ; C-C-H, prebuilt ca-ca-ha
  1116     1115     1170         1       119.880      4.033376E+02     ; C-C-H, prebuilt ca-ca-ha
  1115     1116     1117         1       120.020      5.573088E+02     ; C-C-C, prebuilt ca-ca-ca
  1115     1116     1119         1       119.200      5.824128E+02     ; C-C-O, prebuilt ca-ca-os
  1117     1116     1119         1       119.200      5.824128E+02     ; C-C-O, prebuilt ca-ca-os
  1116     1117     1118         1       120.020      5.573088E+02     ; C-C-C, prebuilt ca-ca-ca
  1116     1117     1171         1       119.880      4.033376E+02     ; C-C-H, prebuilt ca-ca-ha
  1118     1117     1171         1       119.880      4.033376E+02     ; C-C-H, prebuilt ca-ca-ha
  1113     1118     1117         1       120.020      5.573088E+02     ; C-C-C, prebuilt ca-ca-ca
  1113     1118     1172         1       119.880      4.033376E+02     ; C-C-H, prebuilt ca-ca-ha
  1117     1118     1172         1       119.880      4.033376E+02     ; C-C-H, prebuilt ca-ca-ha
  1116     1119     1120         1       119.890      5.313680E+02     ; C-O-C, prebuilt ca-os-ca
  1119     1120     1121         1       119.200      5.824128E+02     ; O-C-C, prebuilt ca-ca-os
  1119     1120     1125         1       119.200      5.824128E+02     ; O-C-C, prebuilt ca-ca-os
  1121     1120     1125         1       120.020      5.573088E+02     ; C-C-C, prebuilt ca-ca-ca
  1120     1121     1122         1       120.020      5.573088E+02     ; C-C-C, prebuilt ca-ca-ca
  1120     1121     1173         1       119.880      4.033376E+02     ; C-C-H, prebuilt ca-ca-ha
  1122     1121     1173         1       119.880      4.033376E+02     ; C-C-H, prebuilt ca-ca-ha
  1121     1122     1123         1       120.020      5.573088E+02     ; C-C-C, prebuilt ca-ca-ca
  1121     1122     1174         1       119.880      4.033376E+02     ; C-C-H, prebuilt ca-ca-ha
  1123     1122     1174         1       119.880      4.033376E+02     ; C-C-H, prebuilt ca-ca-ha
  1122     1123     1124         1       120.020      5.573088E+02     ; C-C-C, prebuilt ca-ca-ca
  1122     1123     1175         1       119.880      4.033376E+02     ; C-C-H, prebuilt ca-ca-ha
  1124     1123     1175         1       119.880      4.033376E+02     ; C-C-H, prebuilt ca-ca-ha
  1123     1124     1125         1       120.020      5.573088E+02     ; C-C-C, prebuilt ca-ca-ca
  1123     1124     1176         1       119.880      4.033376E+02     ; C-C-H, prebuilt ca-ca-ha
  1125     1124     1176         1       119.880      4.033376E+02     ; C-C-H, prebuilt ca-ca-ha
  1120     1125     1124         1       120.020      5.573088E+02     ; C-C-C, prebuilt ca-ca-ca
  1120     1125     1126         1       119.200      5.824128E+02     ; C-C-O, prebuilt ca-ca-os
  1124     1125     1126         1       119.200      5.824128E+02     ; C-C-O, prebuilt ca-ca-os
  1125     1126     1127         1       119.890      5.313680E+02     ; C-O-C, prebuilt ca-os-ca
  1126     1127     1128         1       119.200      5.824128E+02     ; O-C-C, prebuilt ca-ca-os
  1126     1127     1132         1       119.200      5.824128E+02     ; O-C-C, prebuilt ca-ca-os
  1128     1127     1132         1       120.020      5.573088E+02     ; C-C-C, prebuilt ca-ca-ca
  1127     1128     1129         1       120.020      5.573088E+02     ; C-C-C, prebuilt ca-ca-ca
  1127     1128     1177         1       119.880      4.033376E+02     ; C-C-H, prebuilt ca-ca-ha
  1129     1128     1177         1       119.880      4.033376E+02     ; C-C-H, prebuilt ca-ca-ha
  1128     1129     1130         1       120.020      5.573088E+02     ; C-C-C, prebuilt ca-ca-ca
  1128     1129     1178         1       119.880      4.033376E+02     ; C-C-H, prebuilt ca-ca-ha
  1130     1129     1178         1       119.880      4.033376E+02     ; C-C-H, prebuilt ca-ca-ha
  1129     1130     1131         1       120.020      5.573088E+02     ; C-C-C, prebuilt ca-ca-ca
  1129     1130     1133         1       120.190      5.681872E+02     ; C-C-N, prebuilt ca-ca-n
  1131     1130     1133         1       120.190      5.681872E+02     ; C-C-N, prebuilt ca-ca-n
  1130     1131     1132         1       120.020      5.573088E+02     ; C-C-C, prebuilt ca-ca-ca
  1130     1131     1179         1       119.880      4.033376E+02     ; C-C-H, prebuilt ca-ca-ha
  1132     1131     1179         1       119.880      4.033376E+02     ; C-C-H, prebuilt ca-ca-ha
  1127     1132     1131         1       120.020      5.573088E+02     ; C-C-C, prebuilt ca-ca-ca
  1127     1132     1180         1       119.880      4.033376E+02     ; C-C-H, prebuilt ca-ca-ha
  1131     1132     1180         1       119.880      4.033376E+02     ; C-C-H, prebuilt ca-ca-ha
  1130     1133     1134         1       123.710      5.338784E+02     ; C-N-C, prebuilt c-n-ca
  1130     1133     1181         1       116.000      3.983168E+02     ; C-N-H, prebuilt ca-n-hn
  1134     1133     1181         1       117.550      4.041744E+02     ; C-N-H, prebuilt c-n-hn
  1133     1134     1135         1       123.050      6.209056E+02     ; N-C-O, prebuilt n-c-o
  1133     1134     1136         1       115.250      5.665136E+02     ; N-C-C, prebuilt ca-c-n
  1135     1134     1136         1       122.600      5.748816E+02     ; O-C-C, prebuilt ca-c-o
  1134     1136     1137         1       120.330      5.380624E+02     ; C-C-C, prebuilt c-ca-ca
  1134     1136     1141         1       120.330      5.380624E+02     ; C-C-C, prebuilt c-ca-ca
  1137     1136     1141         1       120.020      5.573088E+02     ; C-C-C, prebuilt ca-ca-ca
  1136     1137     1138         1       120.020      5.573088E+02     ; C-C-C, prebuilt ca-ca-ca
  1136     1137     1182         1       119.880      4.033376E+02     ; C-C-H, prebuilt ca-ca-ha
  1138     1137     1182         1       119.880      4.033376E+02     ; C-C-H, prebuilt ca-ca-ha
  1137     1138     1139         1       120.020      5.573088E+02     ; C-C-C, prebuilt ca-ca-ca
  1137     1138     1183         1       119.880      4.033376E+02     ; C-C-H, prebuilt ca-ca-ha
  1139     1138     1183         1       119.880      4.033376E+02     ; C-C-H, prebuilt ca-ca-ha
  1138     1139     1140         1       120.020      5.573088E+02     ; C-C-C, prebuilt ca-ca-ca
  1138     1139     1142         1       120.190      5.681872E+02     ; C-C-N, prebuilt ca-ca-n
  1140     1139     1142         1       120.190      5.681872E+02     ; C-C-N, prebuilt ca-ca-n
  1139     1140     1141         1       120.020      5.573088E+02     ; C-C-C, prebuilt ca-ca-ca
  1139     1140     1184         1       119.880      4.033376E+02     ; C-C-H, prebuilt ca-ca-ha
  1141     1140     1184         1       119.880      4.033376E+02     ; C-C-H, prebuilt ca-ca-ha
  1136     1141     1140         1       120.020      5.573088E+02     ; C-C-C, prebuilt ca-ca-ca
  1136     1141     1185         1       119.880      4.033376E+02     ; C-C-H, prebuilt ca-ca-ha
  1140     1141     1185         1       119.880      4.033376E+02     ; C-C-H, prebuilt ca-ca-ha
  1139     1142     1143         1       123.710      5.338784E+02     ; C-N-C, prebuilt c-n-ca
  1139     1142     1147         1       123.710      5.338784E+02     ; C-N-C, prebuilt c-n-ca
  1143     1142     1147         1       127.080      5.330416E+02     ; C-N-C, prebuilt c-n-c
  1142     1143     1144         1       123.050      6.209056E+02     ; N-C-O, prebuilt n-c-o
  1142     1143     1145         1       115.250      5.665136E+02     ; N-C-C, prebuilt ca-c-n
  1144     1143     1145         1       122.600      5.748816E+02     ; O-C-C, prebuilt ca-c-o
  1143     1145     1146         1       120.330      5.380624E+02     ; C-C-C, prebuilt c-ca-ca
  1143     1145     1152         1       120.330      5.380624E+02     ; C-C-C, prebuilt c-ca-ca
  1146     1145     1152         1       120.020      5.573088E+02     ; C-C-C, prebuilt ca-ca-ca
  1145     1146     1147         1       120.330      5.380624E+02     ; C-C-C, prebuilt c-ca-ca
  1145     1146     1149         1       120.020      5.573088E+02     ; C-C-C, prebuilt ca-ca-ca
  1147     1146     1149         1       120.330      5.380624E+02     ; C-C-C, prebuilt c-ca-ca
  1142     1147     1146         1       115.250      5.665136E+02     ; N-C-C, prebuilt ca-c-n
  1142     1147     1148         1       123.050      6.209056E+02     ; N-C-O, prebuilt n-c-o
  1146     1147     1148         1       122.600      5.748816E+02     ; C-C-O, prebuilt ca-c-o
  1146     1149     1150         1       120.690      5.547984E+02     ; C-C-C, prebuilt ca-ca-cp
  1146     1149     1186         1       119.880      4.033376E+02     ; C-C-H, prebuilt ca-ca-ha
  1150     1149     1186         1       119.860      4.016640E+02     ; C-C-H, prebuilt cp-ca-ha
  1149     1150     1151         1       118.380      5.581456E+02     ; C-C-C, prebuilt ca-cp-ca
  1149     1150     1192         1       121.110      5.355520E+02     ; C-C-C, prebuilt ca-cp-cp
  1151     1150     1192         1       121.110      5.355520E+02     ; C-C-C, prebuilt ca-cp-cp
  1150     1151     1152         1       120.690      5.547984E+02     ; C-C-C, prebuilt ca-ca-cp
  1150     1151     1187         1       119.860      4.016640E+02     ; C-C-H, prebuilt cp-ca-ha
  1152     1151     1187         1       119.880      4.033376E+02     ; C-C-H, prebuilt ca-ca-ha
  1145     1152     1151         1       120.020      5.573088E+02     ; C-C-C, prebuilt ca-ca-ca
  1145     1152     1188         1       119.880      4.033376E+02     ; C-C-H, prebuilt ca-ca-ha
  1151     1152     1188         1       119.880      4.033376E+02     ; C-C-H, prebuilt ca-ca-ha
  1096     1153     1189         1       110.470      3.916224E+02     ; C-C-H, prebuilt ca-c3-hc
  1096     1153     1190         1       110.470      3.916224E+02     ; C-C-H, prebuilt ca-c3-hc
  1096     1153     1191         1       110.470      3.916224E+02     ; C-C-H, prebuilt ca-c3-hc
  1189     1153     1190         1       107.580      3.296992E+02     ; H-C-H, prebuilt hc-c3-hc
  1189     1153     1191         1       107.580      3.296992E+02     ; H-C-H, prebuilt hc-c3-hc
  1190     1153     1191         1       107.580      3.296992E+02     ; H-C-H, prebuilt hc-c3-hc
  1150     1192     1193         1       121.110      5.355520E+02     ; C-C-C, prebuilt ca-cp-cp
  1150     1192     1197         1       121.110      5.355520E+02     ; C-C-C, prebuilt ca-cp-cp
  1193     1192     1197         1       118.380      5.581456E+02     ; C-C-C, prebuilt ca-cp-ca
  1192     1193     1194         1       120.690      5.547984E+02     ; C-C-C, prebuilt ca-ca-cp
  1192     1193     1273         1       119.860      4.016640E+02     ; C-C-H, prebuilt cp-ca-ha
  1194     1193     1273         1       119.880      4.033376E+02     ; C-C-H, prebuilt ca-ca-ha
  1193     1194     1195         1       120.020      5.573088E+02     ; C-C-C, prebuilt ca-ca-ca
  1193     1194     1274         1       119.880      4.033376E+02     ; C-C-H, prebuilt ca-ca-ha
  1195     1194     1274         1       119.880      4.033376E+02     ; C-C-H, prebuilt ca-ca-ha
  1194     1195     1196         1       120.020      5.573088E+02     ; C-C-C, prebuilt ca-ca-ca
  1194     1195     1201         1       120.330      5.380624E+02     ; C-C-C, prebuilt c-ca-ca
  1196     1195     1201         1       120.330      5.380624E+02     ; C-C-C, prebuilt c-ca-ca
  1195     1196     1197         1       120.020      5.573088E+02     ; C-C-C, prebuilt ca-ca-ca
  1195     1196     1198         1       120.330      5.380624E+02     ; C-C-C, prebuilt c-ca-ca
  1197     1196     1198         1       120.330      5.380624E+02     ; C-C-C, prebuilt c-ca-ca
  1192     1197     1196         1       120.690      5.547984E+02     ; C-C-C, prebuilt ca-ca-cp
  1192     1197     1275         1       119.860      4.016640E+02     ; C-C-H, prebuilt cp-ca-ha
  1196     1197     1275         1       119.880      4.033376E+02     ; C-C-H, prebuilt ca-ca-ha
  1196     1198     1199         1       122.600      5.748816E+02     ; C-C-O, prebuilt ca-c-o
  1196     1198     1200         1       115.250      5.665136E+02     ; C-C-N, prebuilt ca-c-n
  1199     1198     1200         1       123.050      6.209056E+02     ; O-C-N, prebuilt n-c-o
  1198     1200     1201         1       127.080      5.330416E+02     ; C-N-C, prebuilt c-n-c
  1198     1200     1203         1       123.710      5.338784E+02     ; C-N-C, prebuilt c-n-ca
  1201     1200     1203         1       123.710      5.338784E+02     ; C-N-C, prebuilt c-n-ca
  1195     1201     1200         1       115.250      5.665136E+02     ; C-C-N, prebuilt ca-c-n
  1195     1201     1202         1       122.600      5.748816E+02     ; C-C-O, prebuilt ca-c-o
  1200     1201     1202         1       123.050      6.209056E+02     ; N-C-O, prebuilt n-c-o
  1200     1203     1204         1       120.190      5.681872E+02     ; N-C-C, prebuilt ca-ca-n
  1200     1203     1208         1       120.190      5.681872E+02     ; N-C-C, prebuilt ca-ca-n
  1204     1203     1208         1       120.020      5.573088E+02     ; C-C-C, prebuilt ca-ca-ca
  1203     1204     1205         1       120.020      5.573088E+02     ; C-C-C, prebuilt ca-ca-ca
  1203     1204     1276         1       119.880      4.033376E+02     ; C-C-H, prebuilt ca-ca-ha
  1205     1204     1276         1       119.880      4.033376E+02     ; C-C-H, prebuilt ca-ca-ha
  1204     1205     1206         1       120.020      5.573088E+02     ; C-C-C, prebuilt ca-ca-ca
  1204     1205     1277         1       119.880      4.033376E+02     ; C-C-H, prebuilt ca-ca-ha
  1206     1205     1277         1       119.880      4.033376E+02     ; C-C-H, prebuilt ca-ca-ha
  1205     1206     1207         1       120.020      5.573088E+02     ; C-C-C, prebuilt ca-ca-ca
  1205     1206     1209         1       120.190      5.681872E+02     ; C-C-N, prebuilt ca-ca-n
  1207     1206     1209         1       120.190      5.681872E+02     ; C-C-N, prebuilt ca-ca-n
  1206     1207     1208         1       120.020      5.573088E+02     ; C-C-C, prebuilt ca-ca-ca
  1206     1207     1278         1       119.880      4.033376E+02     ; C-C-H, prebuilt ca-ca-ha
  1208     1207     1278         1       119.880      4.033376E+02     ; C-C-H, prebuilt ca-ca-ha
  1203     1208     1207         1       120.020      5.573088E+02     ; C-C-C, prebuilt ca-ca-ca
  1203     1208     1279         1       119.880      4.033376E+02     ; C-C-H, prebuilt ca-ca-ha
  1207     1208     1279         1       119.880      4.033376E+02     ; C-C-H, prebuilt ca-ca-ha
  1206     1209     1210         1       123.710      5.338784E+02     ; C-N-C, prebuilt c-n-ca
  1206     1209     1280         1       116.000      3.983168E+02     ; C-N-H, prebuilt ca-n-hn
  1210     1209     1280         1       117.550      4.041744E+02     ; C-N-H, prebuilt c-n-hn
  1209     1210     1211         1       123.050      6.209056E+02     ; N-C-O, prebuilt n-c-o
  1209     1210     1212         1       115.250      5.665136E+02     ; N-C-C, prebuilt ca-c-n
  1211     1210     1212         1       122.600      5.748816E+02     ; O-C-C, prebuilt ca-c-o
  1210     1212     1213         1       120.330      5.380624E+02     ; C-C-C, prebuilt c-ca-ca
  1210     1212     1217         1       120.330      5.380624E+02     ; C-C-C, prebuilt c-ca-ca
  1213     1212     1217         1       120.020      5.573088E+02     ; C-C-C, prebuilt ca-ca-ca
  1212     1213     1214         1       120.020      5.573088E+02     ; C-C-C, prebuilt ca-ca-ca
  1212     1213     1281         1       119.880      4.033376E+02     ; C-C-H, prebuilt ca-ca-ha
  1214     1213     1281         1       119.880      4.033376E+02     ; C-C-H, prebuilt ca-ca-ha
  1213     1214     1215         1       120.020      5.573088E+02     ; C-C-C, prebuilt ca-ca-ca
  1213     1214     1282         1       119.880      4.033376E+02     ; C-C-H, prebuilt ca-ca-ha
  1215     1214     1282         1       119.880      4.033376E+02     ; C-C-H, prebuilt ca-ca-ha
  1214     1215     1216         1       120.020      5.573088E+02     ; C-C-C, prebuilt ca-ca-ca
  1214     1215     1272         1       120.770      5.313680E+02     ; C-C-C, prebuilt c3-ca-ca
  1216     1215     1272         1       120.770      5.313680E+02     ; C-C-C, prebuilt c3-ca-ca
  1215     1216     1217         1       120.020      5.573088E+02     ; C-C-C, prebuilt ca-ca-ca
  1215     1216     1283         1       119.880      4.033376E+02     ; C-C-H, prebuilt ca-ca-ha
  1217     1216     1283         1       119.880      4.033376E+02     ; C-C-H, prebuilt ca-ca-ha
  1212     1217     1216         1       120.020      5.573088E+02     ; C-C-C, prebuilt ca-ca-ca
  1212     1217     1218         1       120.190      5.681872E+02     ; C-C-N, prebuilt ca-ca-n
  1216     1217     1218         1       120.190      5.681872E+02     ; C-C-N, prebuilt ca-ca-n
  1217     1218     1219         1       123.710      5.338784E+02     ; C-N-C, prebuilt c-n-ca
  1217     1218     1223         1       123.710      5.338784E+02     ; C-N-C, prebuilt c-n-ca
  1219     1218     1223         1       127.080      5.330416E+02     ; C-N-C, prebuilt c-n-c
  1218     1219     1220         1       123.050      6.209056E+02     ; N-C-O, prebuilt n-c-o
  1218     1219     1221         1       115.250      5.665136E+02     ; N-C-C, prebuilt ca-c-n
  1220     1219     1221         1       122.600      5.748816E+02     ; O-C-C, prebuilt ca-c-o
  1219     1221     1222         1       120.330      5.380624E+02     ; C-C-C, prebuilt c-ca-ca
  1219     1221     1228         1       120.330      5.380624E+02     ; C-C-C, prebuilt c-ca-ca
  1222     1221     1228         1       120.020      5.573088E+02     ; C-C-C, prebuilt ca-ca-ca
  1221     1222     1223         1       120.330      5.380624E+02     ; C-C-C, prebuilt c-ca-ca
  1221     1222     1225         1       120.020      5.573088E+02     ; C-C-C, prebuilt ca-ca-ca
  1223     1222     1225         1       120.330      5.380624E+02     ; C-C-C, prebuilt c-ca-ca
  1218     1223     1222         1       115.250      5.665136E+02     ; N-C-C, prebuilt ca-c-n
  1218     1223     1224         1       123.050      6.209056E+02     ; N-C-O, prebuilt n-c-o
  1222     1223     1224         1       122.600      5.748816E+02     ; C-C-O, prebuilt ca-c-o
  1222     1225     1226         1       120.020      5.573088E+02     ; C-C-C, prebuilt ca-ca-ca
  1222     1225     1284         1       119.880      4.033376E+02     ; C-C-H, prebuilt ca-ca-ha
  1226     1225     1284         1       119.880      4.033376E+02     ; C-C-H, prebuilt ca-ca-ha
  1225     1226     1227         1       120.020      5.573088E+02     ; C-C-C, prebuilt ca-ca-ca
  1225     1226     1229         1       120.330      5.380624E+02     ; C-C-C, prebuilt c-ca-ca
  1227     1226     1229         1       120.330      5.380624E+02     ; C-C-C, prebuilt c-ca-ca
  1226     1227     1228         1       120.020      5.573088E+02     ; C-C-C, prebuilt ca-ca-ca
  1226     1227     1285         1       119.880      4.033376E+02     ; C-C-H, prebuilt ca-ca-ha
  1228     1227     1285         1       119.880      4.033376E+02     ; C-C-H, prebuilt ca-ca-ha
  1221     1228     1227         1       120.020      5.573088E+02     ; C-C-C, prebuilt ca-ca-ca
  1221     1228     1286         1       119.880      4.033376E+02     ; C-C-H, prebuilt ca-ca-ha
  1227     1228     1286         1       119.880      4.033376E+02     ; C-C-H, prebuilt ca-ca-ha
  1226     1229     1230         1       122.600      5.748816E+02     ; C-C-O, prebuilt ca-c-o
  1226     1229     1231         1       115.250      5.665136E+02     ; C-C-N, prebuilt ca-c-n
  1230     1229     1231         1       123.050      6.209056E+02     ; O-C-N, prebuilt n-c-o
  1229     1231     1232         1       123.710      5.338784E+02     ; C-N-C, prebuilt c-n-ca
  1229     1231     1287         1       117.550      4.041744E+02     ; C-N-H, prebuilt c-n-hn
  1232     1231     1287         1       116.000      3.983168E+02     ; C-N-H, prebuilt ca-n-hn
  1231     1232     1233         1       120.190      5.681872E+02     ; N-C-C, prebuilt ca-ca-n
  1231     1232     1237         1       120.190      5.681872E+02     ; N-C-C, prebuilt ca-ca-n
  1233     1232     1237         1       120.020      5.573088E+02     ; C-C-C, prebuilt ca-ca-ca
  1232     1233     1234         1       120.020      5.573088E+02     ; C-C-C, prebuilt ca-ca-ca
  1232     1233     1288         1       119.880      4.033376E+02     ; C-C-H, prebuilt ca-ca-ha
  1234     1233     1288         1       119.880      4.033376E+02     ; C-C-H, prebuilt ca-ca-ha
  1233     1234     1235         1       120.020      5.573088E+02     ; C-C-C, prebuilt ca-ca-ca
  1233     1234     1289         1       119.880      4.033376E+02     ; C-C-H, prebuilt ca-ca-ha
  1235     1234     1289         1       119.880      4.033376E+02     ; C-C-H, prebuilt ca-ca-ha
  1234     1235     1236         1       120.020      5.573088E+02     ; C-C-C, prebuilt ca-ca-ca
  1234     1235     1238         1       119.200      5.824128E+02     ; C-C-O, prebuilt ca-ca-os
  1236     1235     1238         1       119.200      5.824128E+02     ; C-C-O, prebuilt ca-ca-os
  1235     1236     1237         1       120.020      5.573088E+02     ; C-C-C, prebuilt ca-ca-ca
  1235     1236     1290         1       119.880      4.033376E+02     ; C-C-H, prebuilt ca-ca-ha
  1237     1236     1290         1       119.880      4.033376E+02     ; C-C-H, prebuilt ca-ca-ha
  1232     1237     1236         1       120.020      5.573088E+02     ; C-C-C, prebuilt ca-ca-ca
  1232     1237     1291         1       119.880      4.033376E+02     ; C-C-H, prebuilt ca-ca-ha
  1236     1237     1291         1       119.880      4.033376E+02     ; C-C-H, prebuilt ca-ca-ha
  1235     1238     1239         1       119.890      5.313680E+02     ; C-O-C, prebuilt ca-os-ca
  1238     1239     1240         1       119.200      5.824128E+02     ; O-C-C, prebuilt ca-ca-os
  1238     1239     1244         1       119.200      5.824128E+02     ; O-C-C, prebuilt ca-ca-os
  1240     1239     1244         1       120.020      5.573088E+02     ; C-C-C, prebuilt ca-ca-ca
  1239     1240     1241         1       120.020      5.573088E+02     ; C-C-C, prebuilt ca-ca-ca
  1239     1240     1292         1       119.880      4.033376E+02     ; C-C-H, prebuilt ca-ca-ha
  1241     1240     1292         1       119.880      4.033376E+02     ; C-C-H, prebuilt ca-ca-ha
  1240     1241     1242         1       120.020      5.573088E+02     ; C-C-C, prebuilt ca-ca-ca
  1240     1241     1293         1       119.880      4.033376E+02     ; C-C-H, prebuilt ca-ca-ha
  1242     1241     1293         1       119.880      4.033376E+02     ; C-C-H, prebuilt ca-ca-ha
  1241     1242     1243         1       120.020      5.573088E+02     ; C-C-C, prebuilt ca-ca-ca
  1241     1242     1294         1       119.880      4.033376E+02     ; C-C-H, prebuilt ca-ca-ha
  1243     1242     1294         1       119.880      4.033376E+02     ; C-C-H, prebuilt ca-ca-ha
  1242     1243     1244         1       120.020      5.573088E+02     ; C-C-C, prebuilt ca-ca-ca
  1242     1243     1295         1       119.880      4.033376E+02     ; C-C-H, prebuilt ca-ca-ha
  1244     1243     1295         1       119.880      4.033376E+02     ; C-C-H, prebuilt ca-ca-ha
  1239     1244     1243         1       120.020      5.573088E+02     ; C-C-C, prebuilt ca-ca-ca
  1239     1244     1245         1       119.200      5.824128E+02     ; C-C-O, prebuilt ca-ca-os
  1243     1244     1245         1       119.200      5.824128E+02     ; C-C-O, prebuilt ca-ca-os
  1244     1245     1246         1       119.890      5.313680E+02     ; C-O-C, prebuilt ca-os-ca
  1245     1246     1247         1       119.200      5.824128E+02     ; O-C-C, prebuilt ca-ca-os
  1245     1246     1251         1       119.200      5.824128E+02     ; O-C-C, prebuilt ca-ca-os
  1247     1246     1251         1       120.020      5.573088E+02     ; C-C-C, prebuilt ca-ca-ca
  1246     1247     1248         1       120.020      5.573088E+02     ; C-C-C, prebuilt ca-ca-ca
  1246     1247     1296         1       119.880      4.033376E+02     ; C-C-H, prebuilt ca-ca-ha
  1248     1247     1296         1       119.880      4.033376E+02     ; C-C-H, prebuilt ca-ca-ha
  1247     1248     1249         1       120.020      5.573088E+02     ; C-C-C, prebuilt ca-ca-ca
  1247     1248     1297         1       119.880      4.033376E+02     ; C-C-H, prebuilt ca-ca-ha
  1249     1248     1297         1       119.880      4.033376E+02     ; C-C-H, prebuilt ca-ca-ha
  1248     1249     1250         1       120.020      5.573088E+02     ; C-C-C, prebuilt ca-ca-ca
  1248     1249     1252         1       120.190      5.681872E+02     ; C-C-N, prebuilt ca-ca-n
  1250     1249     1252         1       120.190      5.681872E+02     ; C-C-N, prebuilt ca-ca-n
  1249     1250     1251         1       120.020      5.573088E+02     ; C-C-C, prebuilt ca-ca-ca
  1249     1250     1298         1       119.880      4.033376E+02     ; C-C-H, prebuilt ca-ca-ha
  1251     1250     1298         1       119.880      4.033376E+02     ; C-C-H, prebuilt ca-ca-ha
  1246     1251     1250         1       120.020      5.573088E+02     ; C-C-C, prebuilt ca-ca-ca
  1246     1251     1299         1       119.880      4.033376E+02     ; C-C-H, prebuilt ca-ca-ha
  1250     1251     1299         1       119.880      4.033376E+02     ; C-C-H, prebuilt ca-ca-ha
  1249     1252     1253         1       123.710      5.338784E+02     ; C-N-C, prebuilt c-n-ca
  1249     1252     1300         1       116.000      3.983168E+02     ; C-N-H, prebuilt ca-n-hn
  1253     1252     1300         1       117.550      4.041744E+02     ; C-N-H, prebuilt c-n-hn
  1252     1253     1254         1       123.050      6.209056E+02     ; N-C-O, prebuilt n-c-o
  1252     1253     1255         1       115.250      5.665136E+02     ; N-C-C, prebuilt ca-c-n
  1254     1253     1255         1       122.600      5.748816E+02     ; O-C-C, prebuilt ca-c-o
  1253     1255     1256         1       120.330      5.380624E+02     ; C-C-C, prebuilt c-ca-ca
  1253     1255     1260         1       120.330      5.380624E+02     ; C-C-C, prebuilt c-ca-ca
  1256     1255     1260         1       120.020      5.573088E+02     ; C-C-C, prebuilt ca-ca-ca
  1255     1256     1257         1       120.020      5.573088E+02     ; C-C-C, prebuilt ca-ca-ca
  1255     1256     1301         1       119.880      4.033376E+02     ; C-C-H, prebuilt ca-ca-ha
  1257     1256     1301         1       119.880      4.033376E+02     ; C-C-H, prebuilt ca-ca-ha
  1256     1257     1258         1       120.020      5.573088E+02     ; C-C-C, prebuilt ca-ca-ca
  1256     1257     1302         1       119.880      4.033376E+02     ; C-C-H, prebuilt ca-ca-ha
  1258     1257     1302         1       119.880      4.033376E+02     ; C-C-H, prebuilt ca-ca-ha
  1257     1258     1259         1       120.020      5.573088E+02     ; C-C-C, prebuilt ca-ca-ca
  1257     1258     1261         1       120.190      5.681872E+02     ; C-C-N, prebuilt ca-ca-n
  1259     1258     1261         1       120.190      5.681872E+02     ; C-C-N, prebuilt ca-ca-n
  1258     1259     1260         1       120.020      5.573088E+02     ; C-C-C, prebuilt ca-ca-ca
  1258     1259     1303         1       119.880      4.033376E+02     ; C-C-H, prebuilt ca-ca-ha
  1260     1259     1303         1       119.880      4.033376E+02     ; C-C-H, prebuilt ca-ca-ha
  1255     1260     1259         1       120.020      5.573088E+02     ; C-C-C, prebuilt ca-ca-ca
  1255     1260     1304         1       119.880      4.033376E+02     ; C-C-H, prebuilt ca-ca-ha
  1259     1260     1304         1       119.880      4.033376E+02     ; C-C-H, prebuilt ca-ca-ha
  1258     1261     1262         1       123.710      5.338784E+02     ; C-N-C, prebuilt c-n-ca
  1258     1261     1266         1       123.710      5.338784E+02     ; C-N-C, prebuilt c-n-ca
  1262     1261     1266         1       127.080      5.330416E+02     ; C-N-C, prebuilt c-n-c
  1261     1262     1263         1       123.050      6.209056E+02     ; N-C-O, prebuilt n-c-o
  1261     1262     1264         1       115.250      5.665136E+02     ; N-C-C, prebuilt ca-c-n
  1263     1262     1264         1       122.600      5.748816E+02     ; O-C-C, prebuilt ca-c-o
  1262     1264     1265         1       120.330      5.380624E+02     ; C-C-C, prebuilt c-ca-ca
  1262     1264     1271         1       120.330      5.380624E+02     ; C-C-C, prebuilt c-ca-ca
  1265     1264     1271         1       120.020      5.573088E+02     ; C-C-C, prebuilt ca-ca-ca
  1264     1265     1266         1       120.330      5.380624E+02     ; C-C-C, prebuilt c-ca-ca
  1264     1265     1268         1       120.020      5.573088E+02     ; C-C-C, prebuilt ca-ca-ca
  1266     1265     1268         1       120.330      5.380624E+02     ; C-C-C, prebuilt c-ca-ca
  1261     1266     1265         1       115.250      5.665136E+02     ; N-C-C, prebuilt ca-c-n
  1261     1266     1267         1       123.050      6.209056E+02     ; N-C-O, prebuilt n-c-o
  1265     1266     1267         1       122.600      5.748816E+02     ; C-C-O, prebuilt ca-c-o
  1265     1268     1269         1       120.690      5.547984E+02     ; C-C-C, prebuilt ca-ca-cp
  1265     1268     1305         1       119.880      4.033376E+02     ; C-C-H, prebuilt ca-ca-ha
  1269     1268     1305         1       119.860      4.016640E+02     ; C-C-H, prebuilt cp-ca-ha
  1268     1269     1270         1       118.380      5.581456E+02     ; C-C-C, prebuilt ca-cp-ca
  1268     1269     1311         1       121.110      5.355520E+02     ; C-C-C, prebuilt ca-cp-cp
  1270     1269     1311         1       121.110      5.355520E+02     ; C-C-C, prebuilt ca-cp-cp
  1269     1270     1271         1       120.690      5.547984E+02     ; C-C-C, prebuilt ca-ca-cp
  1269     1270     1306         1       119.860      4.016640E+02     ; C-C-H, prebuilt cp-ca-ha
  1271     1270     1306         1       119.880      4.033376E+02     ; C-C-H, prebuilt ca-ca-ha
  1264     1271     1270         1       120.020      5.573088E+02     ; C-C-C, prebuilt ca-ca-ca
  1264     1271     1307         1       119.880      4.033376E+02     ; C-C-H, prebuilt ca-ca-ha
  1270     1271     1307         1       119.880      4.033376E+02     ; C-C-H, prebuilt ca-ca-ha
  1215     1272     1308         1       110.470      3.916224E+02     ; C-C-H, prebuilt ca-c3-hc
  1215     1272     1309         1       110.470      3.916224E+02     ; C-C-H, prebuilt ca-c3-hc
  1215     1272     1310         1       110.470      3.916224E+02     ; C-C-H, prebuilt ca-c3-hc
  1308     1272     1309         1       107.580      3.296992E+02     ; H-C-H, prebuilt hc-c3-hc
  1308     1272     1310         1       107.580      3.296992E+02     ; H-C-H, prebuilt hc-c3-hc
  1309     1272     1310         1       107.580      3.296992E+02     ; H-C-H, prebuilt hc-c3-hc
  1269     1311     1312         1       121.110      5.355520E+02     ; C-C-C, prebuilt ca-cp-cp
  1269     1311     1316         1       121.110      5.355520E+02     ; C-C-C, prebuilt ca-cp-cp
  1312     1311     1316         1       118.380      5.581456E+02     ; C-C-C, prebuilt ca-cp-ca
  1311     1312     1313         1       120.690      5.547984E+02     ; C-C-C, prebuilt ca-ca-cp
  1311     1312     1392         1       119.860      4.016640E+02     ; C-C-H, prebuilt cp-ca-ha
  1313     1312     1392         1       119.880      4.033376E+02     ; C-C-H, prebuilt ca-ca-ha
  1312     1313     1314         1       120.020      5.573088E+02     ; C-C-C, prebuilt ca-ca-ca
  1312     1313     1393         1       119.880      4.033376E+02     ; C-C-H, prebuilt ca-ca-ha
  1314     1313     1393         1       119.880      4.033376E+02     ; C-C-H, prebuilt ca-ca-ha
  1313     1314     1315         1       120.020      5.573088E+02     ; C-C-C, prebuilt ca-ca-ca
  1313     1314     1320         1       120.330      5.380624E+02     ; C-C-C, prebuilt c-ca-ca
  1315     1314     1320         1       120.330      5.380624E+02     ; C-C-C, prebuilt c-ca-ca
  1314     1315     1316         1       120.020      5.573088E+02     ; C-C-C, prebuilt ca-ca-ca
  1314     1315     1317         1       120.330      5.380624E+02     ; C-C-C, prebuilt c-ca-ca
  1316     1315     1317         1       120.330      5.380624E+02     ; C-C-C, prebuilt c-ca-ca
  1311     1316     1315         1       120.690      5.547984E+02     ; C-C-C, prebuilt ca-ca-cp
  1311     1316     1394         1       119.860      4.016640E+02     ; C-C-H, prebuilt cp-ca-ha
  1315     1316     1394         1       119.880      4.033376E+02     ; C-C-H, prebuilt ca-ca-ha
  1315     1317     1318         1       122.600      5.748816E+02     ; C-C-O, prebuilt ca-c-o
  1315     1317     1319         1       115.250      5.665136E+02     ; C-C-N, prebuilt ca-c-n
  1318     1317     1319         1       123.050      6.209056E+02     ; O-C-N, prebuilt n-c-o
  1317     1319     1320         1       127.080      5.330416E+02     ; C-N-C, prebuilt c-n-c
  1317     1319     1322         1       123.710      5.338784E+02     ; C-N-C, prebuilt c-n-ca
  1320     1319     1322         1       123.710      5.338784E+02     ; C-N-C, prebuilt c-n-ca
  1314     1320     1319         1       115.250      5.665136E+02     ; C-C-N, prebuilt ca-c-n
  1314     1320     1321         1       122.600      5.748816E+02     ; C-C-O, prebuilt ca-c-o
  1319     1320     1321         1       123.050      6.209056E+02     ; N-C-O, prebuilt n-c-o
  1319     1322     1323         1       120.190      5.681872E+02     ; N-C-C, prebuilt ca-ca-n
  1319     1322     1327         1       120.190      5.681872E+02     ; N-C-C, prebuilt ca-ca-n
  1323     1322     1327         1       120.020      5.573088E+02     ; C-C-C, prebuilt ca-ca-ca
  1322     1323     1324         1       120.020      5.573088E+02     ; C-C-C, prebuilt ca-ca-ca
  1322     1323     1395         1       119.880      4.033376E+02     ; C-C-H, prebuilt ca-ca-ha
  1324     1323     1395         1       119.880      4.033376E+02     ; C-C-H, prebuilt ca-ca-ha
  1323     1324     1325         1       120.020      5.573088E+02     ; C-C-C, prebuilt ca-ca-ca
  1323     1324     1396         1       119.880      4.033376E+02     ; C-C-H, prebuilt ca-ca-ha
  1325     1324     1396         1       119.880      4.033376E+02     ; C-C-H, prebuilt ca-ca-ha
  1324     1325     1326         1       120.020      5.573088E+02     ; C-C-C, prebuilt ca-ca-ca
  1324     1325     1328         1       120.190      5.681872E+02     ; C-C-N, prebuilt ca-ca-n
  1326     1325     1328         1       120.190      5.681872E+02     ; C-C-N, prebuilt ca-ca-n
  1325     1326     1327         1       120.020      5.573088E+02     ; C-C-C, prebuilt ca-ca-ca
  1325     1326     1397         1       119.880      4.033376E+02     ; C-C-H, prebuilt ca-ca-ha
  1327     1326     1397         1       119.880      4.033376E+02     ; C-C-H, prebuilt ca-ca-ha
  1322     1327     1326         1       120.020      5.573088E+02     ; C-C-C, prebuilt ca-ca-ca
  1322     1327     1398         1       119.880      4.033376E+02     ; C-C-H, prebuilt ca-ca-ha
  1326     1327     1398         1       119.880      4.033376E+02     ; C-C-H, prebuilt ca-ca-ha
  1325     1328     1329         1       123.710      5.338784E+02     ; C-N-C, prebuilt c-n-ca
  1325     1328     1399         1       116.000      3.983168E+02     ; C-N-H, prebuilt ca-n-hn
  1329     1328     1399         1       117.550      4.041744E+02     ; C-N-H, prebuilt c-n-hn
  1328     1329     1330         1       123.050      6.209056E+02     ; N-C-O, prebuilt n-c-o
  1328     1329     1331         1       115.250      5.665136E+02     ; N-C-C, prebuilt ca-c-n
  1330     1329     1331         1       122.600      5.748816E+02     ; O-C-C, prebuilt ca-c-o
  1329     1331     1332         1       120.330      5.380624E+02     ; C-C-C, prebuilt c-ca-ca
  1329     1331     1336         1       120.330      5.380624E+02     ; C-C-C, prebuilt c-ca-ca
  1332     1331     1336         1       120.020      5.573088E+02     ; C-C-C, prebuilt ca-ca-ca
  1331     1332     1333         1       120.020      5.573088E+02     ; C-C-C, prebuilt ca-ca-ca
  1331     1332     1400         1       119.880      4.033376E+02     ; C-C-H, prebuilt ca-ca-ha
  1333     1332     1400         1       119.880      4.033376E+02     ; C-C-H, prebuilt ca-ca-ha
  1332     1333     1334         1       120.020      5.573088E+02     ; C-C-C, prebuilt ca-ca-ca
  1332     1333     1401         1       119.880      4.033376E+02     ; C-C-H, prebuilt ca-ca-ha
  1334     1333     1401         1       119.880      4.033376E+02     ; C-C-H, prebuilt ca-ca-ha
  1333     1334     1335         1       120.020      5.573088E+02     ; C-C-C, prebuilt ca-ca-ca
  1333     1334     1391         1       120.770      5.313680E+02     ; C-C-C, prebuilt c3-ca-ca
  1335     1334     1391         1       120.770      5.313680E+02     ; C-C-C, prebuilt c3-ca-ca
  1334     1335     1336         1       120.020      5.573088E+02     ; C-C-C, prebuilt ca-ca-ca
  1334     1335     1402         1       119.880      4.033376E+02     ; C-C-H, prebuilt ca-ca-ha
  1336     1335     1402         1       119.880      4.033376E+02     ; C-C-H, prebuilt ca-ca-ha
  1331     1336     1335         1       120.020      5.573088E+02     ; C-C-C, prebuilt ca-ca-ca
  1331     1336     1337         1       120.190      5.681872E+02     ; C-C-N, prebuilt ca-ca-n
  1335     1336     1337         1       120.190      5.681872E+02     ; C-C-N, prebuilt ca-ca-n
  1336     1337     1338         1       123.710      5.338784E+02     ; C-N-C, prebuilt c-n-ca
  1336     1337     1342         1       123.710      5.338784E+02     ; C-N-C, prebuilt c-n-ca
  1338     1337     1342         1       127.080      5.330416E+02     ; C-N-C, prebuilt c-n-c
  1337     1338     1339         1       123.050      6.209056E+02     ; N-C-O, prebuilt n-c-o
  1337     1338     1340         1       115.250      5.665136E+02     ; N-C-C, prebuilt ca-c-n
  1339     1338     1340         1       122.600      5.748816E+02     ; O-C-C, prebuilt ca-c-o
  1338     1340     1341         1       120.330      5.380624E+02     ; C-C-C, prebuilt c-ca-ca
  1338     1340     1347         1       120.330      5.380624E+02     ; C-C-C, prebuilt c-ca-ca
  1341     1340     1347         1       120.020      5.573088E+02     ; C-C-C, prebuilt ca-ca-ca
  1340     1341     1342         1       120.330      5.380624E+02     ; C-C-C, prebuilt c-ca-ca
  1340     1341     1344         1       120.020      5.573088E+02     ; C-C-C, prebuilt ca-ca-ca
  1342     1341     1344         1       120.330      5.380624E+02     ; C-C-C, prebuilt c-ca-ca
  1337     1342     1341         1       115.250      5.665136E+02     ; N-C-C, prebuilt ca-c-n
  1337     1342     1343         1       123.050      6.209056E+02     ; N-C-O, prebuilt n-c-o
  1341     1342     1343         1       122.600      5.748816E+02     ; C-C-O, prebuilt ca-c-o
  1341     1344     1345         1       120.020      5.573088E+02     ; C-C-C, prebuilt ca-ca-ca
  1341     1344     1403         1       119.880      4.033376E+02     ; C-C-H, prebuilt ca-ca-ha
  1345     1344     1403         1       119.880      4.033376E+02     ; C-C-H, prebuilt ca-ca-ha
  1344     1345     1346         1       120.020      5.573088E+02     ; C-C-C, prebuilt ca-ca-ca
  1344     1345     1348         1       120.330      5.380624E+02     ; C-C-C, prebuilt c-ca-ca
  1346     1345     1348         1       120.330      5.380624E+02     ; C-C-C, prebuilt c-ca-ca
  1345     1346     1347         1       120.020      5.573088E+02     ; C-C-C, prebuilt ca-ca-ca
  1345     1346     1404         1       119.880      4.033376E+02     ; C-C-H, prebuilt ca-ca-ha
  1347     1346     1404         1       119.880      4.033376E+02     ; C-C-H, prebuilt ca-ca-ha
  1340     1347     1346         1       120.020      5.573088E+02     ; C-C-C, prebuilt ca-ca-ca
  1340     1347     1405         1       119.880      4.033376E+02     ; C-C-H, prebuilt ca-ca-ha
  1346     1347     1405         1       119.880      4.033376E+02     ; C-C-H, prebuilt ca-ca-ha
  1345     1348     1349         1       122.600      5.748816E+02     ; C-C-O, prebuilt ca-c-o
  1345     1348     1350         1       115.250      5.665136E+02     ; C-C-N, prebuilt ca-c-n
  1349     1348     1350         1       123.050      6.209056E+02     ; O-C-N, prebuilt n-c-o
  1348     1350     1351         1       123.710      5.338784E+02     ; C-N-C, prebuilt c-n-ca
  1348     1350     1406         1       117.550      4.041744E+02     ; C-N-H, prebuilt c-n-hn
  1351     1350     1406         1       116.000      3.983168E+02     ; C-N-H, prebuilt ca-n-hn
  1350     1351     1352         1       120.190      5.681872E+02     ; N-C-C, prebuilt ca-ca-n
  1350     1351     1356         1       120.190      5.681872E+02     ; N-C-C, prebuilt ca-ca-n
  1352     1351     1356         1       120.020      5.573088E+02     ; C-C-C, prebuilt ca-ca-ca
  1351     1352     1353         1       120.020      5.573088E+02     ; C-C-C, prebuilt ca-ca-ca
  1351     1352     1407         1       119.880      4.033376E+02     ; C-C-H, prebuilt ca-ca-ha
  1353     1352     1407         1       119.880      4.033376E+02     ; C-C-H, prebuilt ca-ca-ha
  1352     1353     1354         1       120.020      5.573088E+02     ; C-C-C, prebuilt ca-ca-ca
  1352     1353     1408         1       119.880      4.033376E+02     ; C-C-H, prebuilt ca-ca-ha
  1354     1353     1408         1       119.880      4.033376E+02     ; C-C-H, prebuilt ca-ca-ha
  1353     1354     1355         1       120.020      5.573088E+02     ; C-C-C, prebuilt ca-ca-ca
  1353     1354     1357         1       119.200      5.824128E+02     ; C-C-O, prebuilt ca-ca-os
  1355     1354     1357         1       119.200      5.824128E+02     ; C-C-O, prebuilt ca-ca-os
  1354     1355     1356         1       120.020      5.573088E+02     ; C-C-C, prebuilt ca-ca-ca
  1354     1355     1409         1       119.880      4.033376E+02     ; C-C-H, prebuilt ca-ca-ha
  1356     1355     1409         1       119.880      4.033376E+02     ; C-C-H, prebuilt ca-ca-ha
  1351     1356     1355         1       120.020      5.573088E+02     ; C-C-C, prebuilt ca-ca-ca
  1351     1356     1410         1       119.880      4.033376E+02     ; C-C-H, prebuilt ca-ca-ha
  1355     1356     1410         1       119.880      4.033376E+02     ; C-C-H, prebuilt ca-ca-ha
  1354     1357     1358         1       119.890      5.313680E+02     ; C-O-C, prebuilt ca-os-ca
  1357     1358     1359         1       119.200      5.824128E+02     ; O-C-C, prebuilt ca-ca-os
  1357     1358     1363         1       119.200      5.824128E+02     ; O-C-C, prebuilt ca-ca-os
  1359     1358     1363         1       120.020      5.573088E+02     ; C-C-C, prebuilt ca-ca-ca
  1358     1359     1360         1       120.020      5.573088E+02     ; C-C-C, prebuilt ca-ca-ca
  1358     1359     1411         1       119.880      4.033376E+02     ; C-C-H, prebuilt ca-ca-ha
  1360     1359     1411         1       119.880      4.033376E+02     ; C-C-H, prebuilt ca-ca-ha
  1359     1360     1361         1       120.020      5.573088E+02     ; C-C-C, prebuilt ca-ca-ca
  1359     1360     1412         1       119.880      4.033376E+02     ; C-C-H, prebuilt ca-ca-ha
  1361     1360     1412         1       119.880      4.033376E+02     ; C-C-H, prebuilt ca-ca-ha
  1360     1361     1362         1       120.020      5.573088E+02     ; C-C-C, prebuilt ca-ca-ca
  1360     1361     1413         1       119.880      4.033376E+02     ; C-C-H, prebuilt ca-ca-ha
  1362     1361     1413         1       119.880      4.033376E+02     ; C-C-H, prebuilt ca-ca-ha
  1361     1362     1363         1       120.020      5.573088E+02     ; C-C-C, prebuilt ca-ca-ca
  1361     1362     1414         1       119.880      4.033376E+02     ; C-C-H, prebuilt ca-ca-ha
  1363     1362     1414         1       119.880      4.033376E+02     ; C-C-H, prebuilt ca-ca-ha
  1358     1363     1362         1       120.020      5.573088E+02     ; C-C-C, prebuilt ca-ca-ca
  1358     1363     1364         1       119.200      5.824128E+02     ; C-C-O, prebuilt ca-ca-os
  1362     1363     1364         1       119.200      5.824128E+02     ; C-C-O, prebuilt ca-ca-os
  1363     1364     1365         1       119.890      5.313680E+02     ; C-O-C, prebuilt ca-os-ca
  1364     1365     1366         1       119.200      5.824128E+02     ; O-C-C, prebuilt ca-ca-os
  1364     1365     1370         1       119.200      5.824128E+02     ; O-C-C, prebuilt ca-ca-os
  1366     1365     1370         1       120.020      5.573088E+02     ; C-C-C, prebuilt ca-ca-ca
  1365     1366     1367         1       120.020      5.573088E+02     ; C-C-C, prebuilt ca-ca-ca
  1365     1366     1415         1       119.880      4.033376E+02     ; C-C-H, prebuilt ca-ca-ha
  1367     1366     1415         1       119.880      4.033376E+02     ; C-C-H, prebuilt ca-ca-ha
  1366     1367     1368         1       120.020      5.573088E+02     ; C-C-C, prebuilt ca-ca-ca
  1366     1367     1416         1       119.880      4.033376E+02     ; C-C-H, prebuilt ca-ca-ha
  1368     1367     1416         1       119.880      4.033376E+02     ; C-C-H, prebuilt ca-ca-ha
  1367     1368     1369         1       120.020      5.573088E+02     ; C-C-C, prebuilt ca-ca-ca
  1367     1368     1371         1       120.190      5.681872E+02     ; C-C-N, prebuilt ca-ca-n
  1369     1368     1371         1       120.190      5.681872E+02     ; C-C-N, prebuilt ca-ca-n
  1368     1369     1370         1       120.020      5.573088E+02     ; C-C-C, prebuilt ca-ca-ca
  1368     1369     1417         1       119.880      4.033376E+02     ; C-C-H, prebuilt ca-ca-ha
  1370     1369     1417         1       119.880      4.033376E+02     ; C-C-H, prebuilt ca-ca-ha
  1365     1370     1369         1       120.020      5.573088E+02     ; C-C-C, prebuilt ca-ca-ca
  1365     1370     1418         1       119.880      4.033376E+02     ; C-C-H, prebuilt ca-ca-ha
  1369     1370     1418         1       119.880      4.033376E+02     ; C-C-H, prebuilt ca-ca-ha
  1368     1371     1372         1       123.710      5.338784E+02     ; C-N-C, prebuilt c-n-ca
  1368     1371     1419         1       116.000      3.983168E+02     ; C-N-H, prebuilt ca-n-hn
  1372     1371     1419         1       117.550      4.041744E+02     ; C-N-H, prebuilt c-n-hn
  1371     1372     1373         1       123.050      6.209056E+02     ; N-C-O, prebuilt n-c-o
  1371     1372     1374         1       115.250      5.665136E+02     ; N-C-C, prebuilt ca-c-n
  1373     1372     1374         1       122.600      5.748816E+02     ; O-C-C, prebuilt ca-c-o
  1372     1374     1375         1       120.330      5.380624E+02     ; C-C-C, prebuilt c-ca-ca
  1372     1374     1379         1       120.330      5.380624E+02     ; C-C-C, prebuilt c-ca-ca
  1375     1374     1379         1       120.020      5.573088E+02     ; C-C-C, prebuilt ca-ca-ca
  1374     1375     1376         1       120.020      5.573088E+02     ; C-C-C, prebuilt ca-ca-ca
  1374     1375     1420         1       119.880      4.033376E+02     ; C-C-H, prebuilt ca-ca-ha
  1376     1375     1420         1       119.880      4.033376E+02     ; C-C-H, prebuilt ca-ca-ha
  1375     1376     1377         1       120.020      5.573088E+02     ; C-C-C, prebuilt ca-ca-ca
  1375     1376     1421         1       119.880      4.033376E+02     ; C-C-H, prebuilt ca-ca-ha
  1377     1376     1421         1       119.880      4.033376E+02     ; C-C-H, prebuilt ca-ca-ha
  1376     1377     1378         1       120.020      5.573088E+02     ; C-C-C, prebuilt ca-ca-ca
  1376     1377     1380         1       120.190      5.681872E+02     ; C-C-N, prebuilt ca-ca-n
  1378     1377     1380         1       120.190      5.681872E+02     ; C-C-N, prebuilt ca-ca-n
  1377     1378     1379         1       120.020      5.573088E+02     ; C-C-C, prebuilt ca-ca-ca
  1377     1378     1422         1       119.880      4.033376E+02     ; C-C-H, prebuilt ca-ca-ha
  1379     1378     1422         1       119.880      4.033376E+02     ; C-C-H, prebuilt ca-ca-ha
  1374     1379     1378         1       120.020      5.573088E+02     ; C-C-C, prebuilt ca-ca-ca
  1374     1379     1423         1       119.880      4.033376E+02     ; C-C-H, prebuilt ca-ca-ha
  1378     1379     1423         1       119.880      4.033376E+02     ; C-C-H, prebuilt ca-ca-ha
  1377     1380     1381         1       123.710      5.338784E+02     ; C-N-C, prebuilt c-n-ca
  1377     1380     1385         1       123.710      5.338784E+02     ; C-N-C, prebuilt c-n-ca
  1381     1380     1385         1       127.080      5.330416E+02     ; C-N-C, prebuilt c-n-c
  1380     1381     1382         1       123.050      6.209056E+02     ; N-C-O, prebuilt n-c-o
  1380     1381     1383         1       115.250      5.665136E+02     ; N-C-C, prebuilt ca-c-n
  1382     1381     1383         1       122.600      5.748816E+02     ; O-C-C, prebuilt ca-c-o
  1381     1383     1384         1       120.330      5.380624E+02     ; C-C-C, prebuilt c-ca-ca
  1381     1383     1390         1       120.330      5.380624E+02     ; C-C-C, prebuilt c-ca-ca
  1384     1383     1390         1       120.020      5.573088E+02     ; C-C-C, prebuilt ca-ca-ca
  1383     1384     1385         1       120.330      5.380624E+02     ; C-C-C, prebuilt c-ca-ca
  1383     1384     1387         1       120.020      5.573088E+02     ; C-C-C, prebuilt ca-ca-ca
  1385     1384     1387         1       120.330      5.380624E+02     ; C-C-C, prebuilt c-ca-ca
  1380     1385     1384         1       115.250      5.665136E+02     ; N-C-C, prebuilt ca-c-n
  1380     1385     1386         1       123.050      6.209056E+02     ; N-C-O, prebuilt n-c-o
  1384     1385     1386         1       122.600      5.748816E+02     ; C-C-O, prebuilt ca-c-o
  1384     1387     1388         1       120.690      5.547984E+02     ; C-C-C, prebuilt ca-ca-cp
  1384     1387     1424         1       119.880      4.033376E+02     ; C-C-H, prebuilt ca-ca-ha
  1388     1387     1424         1       119.860      4.016640E+02     ; C-C-H, prebuilt cp-ca-ha
  1387     1388     1389         1       118.380      5.581456E+02     ; C-C-C, prebuilt ca-cp-ca
  1387     1388     1430         1       121.110      5.355520E+02     ; C-C-C, prebuilt ca-cp-cp
  1389     1388     1430         1       121.110      5.355520E+02     ; C-C-C, prebuilt ca-cp-cp
  1388     1389     1390         1       120.690      5.547984E+02     ; C-C-C, prebuilt ca-ca-cp
  1388     1389     1425         1       119.860      4.016640E+02     ; C-C-H, prebuilt cp-ca-ha
  1390     1389     1425         1       119.880      4.033376E+02     ; C-C-H, prebuilt ca-ca-ha
  1383     1390     1389         1       120.020      5.573088E+02     ; C-C-C, prebuilt ca-ca-ca
  1383     1390     1426         1       119.880      4.033376E+02     ; C-C-H, prebuilt ca-ca-ha
  1389     1390     1426         1       119.880      4.033376E+02     ; C-C-H, prebuilt ca-ca-ha
  1334     1391     1427         1       110.470      3.916224E+02     ; C-C-H, prebuilt ca-c3-hc
  1334     1391     1428         1       110.470      3.916224E+02     ; C-C-H, prebuilt ca-c3-hc
  1334     1391     1429         1       110.470      3.916224E+02     ; C-C-H, prebuilt ca-c3-hc
  1427     1391     1428         1       107.580      3.296992E+02     ; H-C-H, prebuilt hc-c3-hc
  1427     1391     1429         1       107.580      3.296992E+02     ; H-C-H, prebuilt hc-c3-hc
  1428     1391     1429         1       107.580      3.296992E+02     ; H-C-H, prebuilt hc-c3-hc
  1388     1430     1431         1       121.110      5.355520E+02     ; C-C-C, prebuilt ca-cp-cp
  1388     1430     1435         1       121.110      5.355520E+02     ; C-C-C, prebuilt ca-cp-cp
  1431     1430     1435         1       118.380      5.581456E+02     ; C-C-C, prebuilt ca-cp-ca
  1430     1431     1432         1       120.690      5.547984E+02     ; C-C-C, prebuilt ca-ca-cp
  1430     1431     1511         1       119.860      4.016640E+02     ; C-C-H, prebuilt cp-ca-ha
  1432     1431     1511         1       119.880      4.033376E+02     ; C-C-H, prebuilt ca-ca-ha
  1431     1432     1433         1       120.020      5.573088E+02     ; C-C-C, prebuilt ca-ca-ca
  1431     1432     1512         1       119.880      4.033376E+02     ; C-C-H, prebuilt ca-ca-ha
  1433     1432     1512         1       119.880      4.033376E+02     ; C-C-H, prebuilt ca-ca-ha
  1432     1433     1434         1       120.020      5.573088E+02     ; C-C-C, prebuilt ca-ca-ca
  1432     1433     1439         1       120.330      5.380624E+02     ; C-C-C, prebuilt c-ca-ca
  1434     1433     1439         1       120.330      5.380624E+02     ; C-C-C, prebuilt c-ca-ca
  1433     1434     1435         1       120.020      5.573088E+02     ; C-C-C, prebuilt ca-ca-ca
  1433     1434     1436         1       120.330      5.380624E+02     ; C-C-C, prebuilt c-ca-ca
  1435     1434     1436         1       120.330      5.380624E+02     ; C-C-C, prebuilt c-ca-ca
  1430     1435     1434         1       120.690      5.547984E+02     ; C-C-C, prebuilt ca-ca-cp
  1430     1435     1513         1       119.860      4.016640E+02     ; C-C-H, prebuilt cp-ca-ha
  1434     1435     1513         1       119.880      4.033376E+02     ; C-C-H, prebuilt ca-ca-ha
  1434     1436     1437         1       122.600      5.748816E+02     ; C-C-O, prebuilt ca-c-o
  1434     1436     1438         1       115.250      5.665136E+02     ; C-C-N, prebuilt ca-c-n
  1437     1436     1438         1       123.050      6.209056E+02     ; O-C-N, prebuilt n-c-o
  1436     1438     1439         1       127.080      5.330416E+02     ; C-N-C, prebuilt c-n-c
  1436     1438     1441         1       123.710      5.338784E+02     ; C-N-C, prebuilt c-n-ca
  1439     1438     1441         1       123.710      5.338784E+02     ; C-N-C, prebuilt c-n-ca
  1433     1439     1438         1       115.250      5.665136E+02     ; C-C-N, prebuilt ca-c-n
  1433     1439     1440         1       122.600      5.748816E+02     ; C-C-O, prebuilt ca-c-o
  1438     1439     1440         1       123.050      6.209056E+02     ; N-C-O, prebuilt n-c-o
  1438     1441     1442         1       120.190      5.681872E+02     ; N-C-C, prebuilt ca-ca-n
  1438     1441     1446         1       120.190      5.681872E+02     ; N-C-C, prebuilt ca-ca-n
  1442     1441     1446         1       120.020      5.573088E+02     ; C-C-C, prebuilt ca-ca-ca
  1441     1442     1443         1       120.020      5.573088E+02     ; C-C-C, prebuilt ca-ca-ca
  1441     1442     1514         1       119.880      4.033376E+02     ; C-C-H, prebuilt ca-ca-ha
  1443     1442     1514         1       119.880      4.033376E+02     ; C-C-H, prebuilt ca-ca-ha
  1442     1443     1444         1       120.020      5.573088E+02     ; C-C-C, prebuilt ca-ca-ca
  1442     1443     1515         1       119.880      4.033376E+02     ; C-C-H, prebuilt ca-ca-ha
  1444     1443     1515         1       119.880      4.033376E+02     ; C-C-H, prebuilt ca-ca-ha
  1443     1444     1445         1       120.020      5.573088E+02     ; C-C-C, prebuilt ca-ca-ca
  1443     1444     1447         1       120.190      5.681872E+02     ; C-C-N, prebuilt ca-ca-n
  1445     1444     1447         1       120.190      5.681872E+02     ; C-C-N, prebuilt ca-ca-n
  1444     1445     1446         1       120.020      5.573088E+02     ; C-C-C, prebuilt ca-ca-ca
  1444     1445     1516         1       119.880      4.033376E+02     ; C-C-H, prebuilt ca-ca-ha
  1446     1445     1516         1       119.880      4.033376E+02     ; C-C-H, prebuilt ca-ca-ha
  1441     1446     1445         1       120.020      5.573088E+02     ; C-C-C, prebuilt ca-ca-ca
  1441     1446     1517         1       119.880      4.033376E+02     ; C-C-H, prebuilt ca-ca-ha
  1445     1446     1517         1       119.880      4.033376E+02     ; C-C-H, prebuilt ca-ca-ha
  1444     1447     1448         1       123.710      5.338784E+02     ; C-N-C, prebuilt c-n-ca
  1444     1447     1518         1       116.000      3.983168E+02     ; C-N-H, prebuilt ca-n-hn
  1448     1447     1518         1       117.550      4.041744E+02     ; C-N-H, prebuilt c-n-hn
  1447     1448     1449         1       123.050      6.209056E+02     ; N-C-O, prebuilt n-c-o
  1447     1448     1450         1       115.250      5.665136E+02     ; N-C-C, prebuilt ca-c-n
  1449     1448     1450         1       122.600      5.748816E+02     ; O-C-C, prebuilt ca-c-o
  1448     1450     1451         1       120.330      5.380624E+02     ; C-C-C, prebuilt c-ca-ca
  1448     1450     1455         1       120.330      5.380624E+02     ; C-C-C, prebuilt c-ca-ca
  1451     1450     1455         1       120.020      5.573088E+02     ; C-C-C, prebuilt ca-ca-ca
  1450     1451     1452         1       120.020      5.573088E+02     ; C-C-C, prebuilt ca-ca-ca
  1450     1451     1519         1       119.880      4.033376E+02     ; C-C-H, prebuilt ca-ca-ha
  1452     1451     1519         1       119.880      4.033376E+02     ; C-C-H, prebuilt ca-ca-ha
  1451     1452     1453         1       120.020      5.573088E+02     ; C-C-C, prebuilt ca-ca-ca
  1451     1452     1520         1       119.880      4.033376E+02     ; C-C-H, prebuilt ca-ca-ha
  1453     1452     1520         1       119.880      4.033376E+02     ; C-C-H, prebuilt ca-ca-ha
  1452     1453     1454         1       120.020      5.573088E+02     ; C-C-C, prebuilt ca-ca-ca
  1452     1453     1510         1       120.770      5.313680E+02     ; C-C-C, prebuilt c3-ca-ca
  1454     1453     1510         1       120.770      5.313680E+02     ; C-C-C, prebuilt c3-ca-ca
  1453     1454     1455         1       120.020      5.573088E+02     ; C-C-C, prebuilt ca-ca-ca
  1453     1454     1521         1       119.880      4.033376E+02     ; C-C-H, prebuilt ca-ca-ha
  1455     1454     1521         1       119.880      4.033376E+02     ; C-C-H, prebuilt ca-ca-ha
  1450     1455     1454         1       120.020      5.573088E+02     ; C-C-C, prebuilt ca-ca-ca
  1450     1455     1456         1       120.190      5.681872E+02     ; C-C-N, prebuilt ca-ca-n
  1454     1455     1456         1       120.190      5.681872E+02     ; C-C-N, prebuilt ca-ca-n
  1455     1456     1457         1       123.710      5.338784E+02     ; C-N-C, prebuilt c-n-ca
  1455     1456     1461         1       123.710      5.338784E+02     ; C-N-C, prebuilt c-n-ca
  1457     1456     1461         1       127.080      5.330416E+02     ; C-N-C, prebuilt c-n-c
  1456     1457     1458         1       123.050      6.209056E+02     ; N-C-O, prebuilt n-c-o
  1456     1457     1459         1       115.250      5.665136E+02     ; N-C-C, prebuilt ca-c-n
  1458     1457     1459         1       122.600      5.748816E+02     ; O-C-C, prebuilt ca-c-o
  1457     1459     1460         1       120.330      5.380624E+02     ; C-C-C, prebuilt c-ca-ca
  1457     1459     1466         1       120.330      5.380624E+02     ; C-C-C, prebuilt c-ca-ca
  1460     1459     1466         1       120.020      5.573088E+02     ; C-C-C, prebuilt ca-ca-ca
  1459     1460     1461         1       120.330      5.380624E+02     ; C-C-C, prebuilt c-ca-ca
  1459     1460     1463         1       120.020      5.573088E+02     ; C-C-C, prebuilt ca-ca-ca
  1461     1460     1463         1       120.330      5.380624E+02     ; C-C-C, prebuilt c-ca-ca
  1456     1461     1460         1       115.250      5.665136E+02     ; N-C-C, prebuilt ca-c-n
  1456     1461     1462         1       123.050      6.209056E+02     ; N-C-O, prebuilt n-c-o
  1460     1461     1462         1       122.600      5.748816E+02     ; C-C-O, prebuilt ca-c-o
  1460     1463     1464         1       120.020      5.573088E+02     ; C-C-C, prebuilt ca-ca-ca
  1460     1463     1522         1       119.880      4.033376E+02     ; C-C-H, prebuilt ca-ca-ha
  1464     1463     1522         1       119.880      4.033376E+02     ; C-C-H, prebuilt ca-ca-ha
  1463     1464     1465         1       120.020      5.573088E+02     ; C-C-C, prebuilt ca-ca-ca
  1463     1464     1467         1       120.330      5.380624E+02     ; C-C-C, prebuilt c-ca-ca
  1465     1464     1467         1       120.330      5.380624E+02     ; C-C-C, prebuilt c-ca-ca
  1464     1465     1466         1       120.020      5.573088E+02     ; C-C-C, prebuilt ca-ca-ca
  1464     1465     1523         1       119.880      4.033376E+02     ; C-C-H, prebuilt ca-ca-ha
  1466     1465     1523         1       119.880      4.033376E+02     ; C-C-H, prebuilt ca-ca-ha
  1459     1466     1465         1       120.020      5.573088E+02     ; C-C-C, prebuilt ca-ca-ca
  1459     1466     1524         1       119.880      4.033376E+02     ; C-C-H, prebuilt ca-ca-ha
  1465     1466     1524         1       119.880      4.033376E+02     ; C-C-H, prebuilt ca-ca-ha
  1464     1467     1468         1       122.600      5.748816E+02     ; C-C-O, prebuilt ca-c-o
  1464     1467     1469         1       115.250      5.665136E+02     ; C-C-N, prebuilt ca-c-n
  1468     1467     1469         1       123.050      6.209056E+02     ; O-C-N, prebuilt n-c-o
  1467     1469     1470         1       123.710      5.338784E+02     ; C-N-C, prebuilt c-n-ca
  1467     1469     1525         1       117.550      4.041744E+02     ; C-N-H, prebuilt c-n-hn
  1470     1469     1525         1       116.000      3.983168E+02     ; C-N-H, prebuilt ca-n-hn
  1469     1470     1471         1       120.190      5.681872E+02     ; N-C-C, prebuilt ca-ca-n
  1469     1470     1475         1       120.190      5.681872E+02     ; N-C-C, prebuilt ca-ca-n
  1471     1470     1475         1       120.020      5.573088E+02     ; C-C-C, prebuilt ca-ca-ca
  1470     1471     1472         1       120.020      5.573088E+02     ; C-C-C, prebuilt ca-ca-ca
  1470     1471     1526         1       119.880      4.033376E+02     ; C-C-H, prebuilt ca-ca-ha
  1472     1471     1526         1       119.880      4.033376E+02     ; C-C-H, prebuilt ca-ca-ha
  1471     1472     1473         1       120.020      5.573088E+02     ; C-C-C, prebuilt ca-ca-ca
  1471     1472     1527         1       119.880      4.033376E+02     ; C-C-H, prebuilt ca-ca-ha
  1473     1472     1527         1       119.880      4.033376E+02     ; C-C-H, prebuilt ca-ca-ha
  1472     1473     1474         1       120.020      5.573088E+02     ; C-C-C, prebuilt ca-ca-ca
  1472     1473     1476         1       119.200      5.824128E+02     ; C-C-O, prebuilt ca-ca-os
  1474     1473     1476         1       119.200      5.824128E+02     ; C-C-O, prebuilt ca-ca-os
  1473     1474     1475         1       120.020      5.573088E+02     ; C-C-C, prebuilt ca-ca-ca
  1473     1474     1528         1       119.880      4.033376E+02     ; C-C-H, prebuilt ca-ca-ha
  1475     1474     1528         1       119.880      4.033376E+02     ; C-C-H, prebuilt ca-ca-ha
  1470     1475     1474         1       120.020      5.573088E+02     ; C-C-C, prebuilt ca-ca-ca
  1470     1475     1529         1       119.880      4.033376E+02     ; C-C-H, prebuilt ca-ca-ha
  1474     1475     1529         1       119.880      4.033376E+02     ; C-C-H, prebuilt ca-ca-ha
  1473     1476     1477         1       119.890      5.313680E+02     ; C-O-C, prebuilt ca-os-ca
  1476     1477     1478         1       119.200      5.824128E+02     ; O-C-C, prebuilt ca-ca-os
  1476     1477     1482         1       119.200      5.824128E+02     ; O-C-C, prebuilt ca-ca-os
  1478     1477     1482         1       120.020      5.573088E+02     ; C-C-C, prebuilt ca-ca-ca
  1477     1478     1479         1       120.020      5.573088E+02     ; C-C-C, prebuilt ca-ca-ca
  1477     1478     1530         1       119.880      4.033376E+02     ; C-C-H, prebuilt ca-ca-ha
  1479     1478     1530         1       119.880      4.033376E+02     ; C-C-H, prebuilt ca-ca-ha
  1478     1479     1480         1       120.020      5.573088E+02     ; C-C-C, prebuilt ca-ca-ca
  1478     1479     1531         1       119.880      4.033376E+02     ; C-C-H, prebuilt ca-ca-ha
  1480     1479     1531         1       119.880      4.033376E+02     ; C-C-H, prebuilt ca-ca-ha
  1479     1480     1481         1       120.020      5.573088E+02     ; C-C-C, prebuilt ca-ca-ca
  1479     1480     1532         1       119.880      4.033376E+02     ; C-C-H, prebuilt ca-ca-ha
  1481     1480     1532         1       119.880      4.033376E+02     ; C-C-H, prebuilt ca-ca-ha
  1480     1481     1482         1       120.020      5.573088E+02     ; C-C-C, prebuilt ca-ca-ca
  1480     1481     1533         1       119.880      4.033376E+02     ; C-C-H, prebuilt ca-ca-ha
  1482     1481     1533         1       119.880      4.033376E+02     ; C-C-H, prebuilt ca-ca-ha
  1477     1482     1481         1       120.020      5.573088E+02     ; C-C-C, prebuilt ca-ca-ca
  1477     1482     1483         1       119.200      5.824128E+02     ; C-C-O, prebuilt ca-ca-os
  1481     1482     1483         1       119.200      5.824128E+02     ; C-C-O, prebuilt ca-ca-os
  1482     1483     1484         1       119.890      5.313680E+02     ; C-O-C, prebuilt ca-os-ca
  1483     1484     1485         1       119.200      5.824128E+02     ; O-C-C, prebuilt ca-ca-os
  1483     1484     1489         1       119.200      5.824128E+02     ; O-C-C, prebuilt ca-ca-os
  1485     1484     1489         1       120.020      5.573088E+02     ; C-C-C, prebuilt ca-ca-ca
  1484     1485     1486         1       120.020      5.573088E+02     ; C-C-C, prebuilt ca-ca-ca
  1484     1485     1534         1       119.880      4.033376E+02     ; C-C-H, prebuilt ca-ca-ha
  1486     1485     1534         1       119.880      4.033376E+02     ; C-C-H, prebuilt ca-ca-ha
  1485     1486     1487         1       120.020      5.573088E+02     ; C-C-C, prebuilt ca-ca-ca
  1485     1486     1535         1       119.880      4.033376E+02     ; C-C-H, prebuilt ca-ca-ha
  1487     1486     1535         1       119.880      4.033376E+02     ; C-C-H, prebuilt ca-ca-ha
  1486     1487     1488         1       120.020      5.573088E+02     ; C-C-C, prebuilt ca-ca-ca
  1486     1487     1490         1       120.190      5.681872E+02     ; C-C-N, prebuilt ca-ca-n
  1488     1487     1490         1       120.190      5.681872E+02     ; C-C-N, prebuilt ca-ca-n
  1487     1488     1489         1       120.020      5.573088E+02     ; C-C-C, prebuilt ca-ca-ca
  1487     1488     1536         1       119.880      4.033376E+02     ; C-C-H, prebuilt ca-ca-ha
  1489     1488     1536         1       119.880      4.033376E+02     ; C-C-H, prebuilt ca-ca-ha
  1484     1489     1488         1       120.020      5.573088E+02     ; C-C-C, prebuilt ca-ca-ca
  1484     1489     1537         1       119.880      4.033376E+02     ; C-C-H, prebuilt ca-ca-ha
  1488     1489     1537         1       119.880      4.033376E+02     ; C-C-H, prebuilt ca-ca-ha
  1487     1490     1491         1       123.710      5.338784E+02     ; C-N-C, prebuilt c-n-ca
  1487     1490     1538         1       116.000      3.983168E+02     ; C-N-H, prebuilt ca-n-hn
  1491     1490     1538         1       117.550      4.041744E+02     ; C-N-H, prebuilt c-n-hn
  1490     1491     1492         1       123.050      6.209056E+02     ; N-C-O, prebuilt n-c-o
  1490     1491     1493         1       115.250      5.665136E+02     ; N-C-C, prebuilt ca-c-n
  1492     1491     1493         1       122.600      5.748816E+02     ; O-C-C, prebuilt ca-c-o
  1491     1493     1494         1       120.330      5.380624E+02     ; C-C-C, prebuilt c-ca-ca
  1491     1493     1498         1       120.330      5.380624E+02     ; C-C-C, prebuilt c-ca-ca
  1494     1493     1498         1       120.020      5.573088E+02     ; C-C-C, prebuilt ca-ca-ca
  1493     1494     1495         1       120.020      5.573088E+02     ; C-C-C, prebuilt ca-ca-ca
  1493     1494     1539         1       119.880      4.033376E+02     ; C-C-H, prebuilt ca-ca-ha
  1495     1494     1539         1       119.880      4.033376E+02     ; C-C-H, prebuilt ca-ca-ha
  1494     1495     1496         1       120.020      5.573088E+02     ; C-C-C, prebuilt ca-ca-ca
  1494     1495     1540         1       119.880      4.033376E+02     ; C-C-H, prebuilt ca-ca-ha
  1496     1495     1540         1       119.880      4.033376E+02     ; C-C-H, prebuilt ca-ca-ha
  1495     1496     1497         1       120.020      5.573088E+02     ; C-C-C, prebuilt ca-ca-ca
  1495     1496     1499         1       120.190      5.681872E+02     ; C-C-N, prebuilt ca-ca-n
  1497     1496     1499         1       120.190      5.681872E+02     ; C-C-N, prebuilt ca-ca-n
  1496     1497     1498         1       120.020      5.573088E+02     ; C-C-C, prebuilt ca-ca-ca
  1496     1497     1541         1       119.880      4.033376E+02     ; C-C-H, prebuilt ca-ca-ha
  1498     1497     1541         1       119.880      4.033376E+02     ; C-C-H, prebuilt ca-ca-ha
  1493     1498     1497         1       120.020      5.573088E+02     ; C-C-C, prebuilt ca-ca-ca
  1493     1498     1542         1       119.880      4.033376E+02     ; C-C-H, prebuilt ca-ca-ha
  1497     1498     1542         1       119.880      4.033376E+02     ; C-C-H, prebuilt ca-ca-ha
  1496     1499     1500         1       123.710      5.338784E+02     ; C-N-C, prebuilt c-n-ca
  1496     1499     1504         1       123.710      5.338784E+02     ; C-N-C, prebuilt c-n-ca
  1500     1499     1504         1       127.080      5.330416E+02     ; C-N-C, prebuilt c-n-c
  1499     1500     1501         1       123.050      6.209056E+02     ; N-C-O, prebuilt n-c-o
  1499     1500     1502         1       115.250      5.665136E+02     ; N-C-C, prebuilt ca-c-n
  1501     1500     1502         1       122.600      5.748816E+02     ; O-C-C, prebuilt ca-c-o
  1500     1502     1503         1       120.330      5.380624E+02     ; C-C-C, prebuilt c-ca-ca
  1500     1502     1509         1       120.330      5.380624E+02     ; C-C-C, prebuilt c-ca-ca
  1503     1502     1509         1       120.020      5.573088E+02     ; C-C-C, prebuilt ca-ca-ca
  1502     1503     1504         1       120.330      5.380624E+02     ; C-C-C, prebuilt c-ca-ca
  1502     1503     1506         1       120.020      5.573088E+02     ; C-C-C, prebuilt ca-ca-ca
  1504     1503     1506         1       120.330      5.380624E+02     ; C-C-C, prebuilt c-ca-ca
  1499     1504     1503         1       115.250      5.665136E+02     ; N-C-C, prebuilt ca-c-n
  1499     1504     1505         1       123.050      6.209056E+02     ; N-C-O, prebuilt n-c-o
  1503     1504     1505         1       122.600      5.748816E+02     ; C-C-O, prebuilt ca-c-o
  1503     1506     1507         1       120.690      5.547984E+02     ; C-C-C, prebuilt ca-ca-cp
  1503     1506     1543         1       119.880      4.033376E+02     ; C-C-H, prebuilt ca-ca-ha
  1507     1506     1543         1       119.860      4.016640E+02     ; C-C-H, prebuilt cp-ca-ha
  1506     1507     1508         1       118.380      5.581456E+02     ; C-C-C, prebuilt ca-cp-ca
  1506     1507     1549         1       121.110      5.355520E+02     ; C-C-C, prebuilt ca-cp-cp
  1508     1507     1549         1       121.110      5.355520E+02     ; C-C-C, prebuilt ca-cp-cp
  1507     1508     1509         1       120.690      5.547984E+02     ; C-C-C, prebuilt ca-ca-cp
  1507     1508     1544         1       119.860      4.016640E+02     ; C-C-H, prebuilt cp-ca-ha
  1509     1508     1544         1       119.880      4.033376E+02     ; C-C-H, prebuilt ca-ca-ha
  1502     1509     1508         1       120.020      5.573088E+02     ; C-C-C, prebuilt ca-ca-ca
  1502     1509     1545         1       119.880      4.033376E+02     ; C-C-H, prebuilt ca-ca-ha
  1508     1509     1545         1       119.880      4.033376E+02     ; C-C-H, prebuilt ca-ca-ha
  1453     1510     1546         1       110.470      3.916224E+02     ; C-C-H, prebuilt ca-c3-hc
  1453     1510     1547         1       110.470      3.916224E+02     ; C-C-H, prebuilt ca-c3-hc
  1453     1510     1548         1       110.470      3.916224E+02     ; C-C-H, prebuilt ca-c3-hc
  1546     1510     1547         1       107.580      3.296992E+02     ; H-C-H, prebuilt hc-c3-hc
  1546     1510     1548         1       107.580      3.296992E+02     ; H-C-H, prebuilt hc-c3-hc
  1547     1510     1548         1       107.580      3.296992E+02     ; H-C-H, prebuilt hc-c3-hc
  1507     1549     1550         1       121.110      5.355520E+02     ; C-C-C, prebuilt ca-cp-cp
  1507     1549     1554         1       121.110      5.355520E+02     ; C-C-C, prebuilt ca-cp-cp
  1550     1549     1554         1       118.380      5.581456E+02     ; C-C-C, prebuilt ca-cp-ca
  1549     1550     1551         1       120.690      5.547984E+02     ; C-C-C, prebuilt ca-ca-cp
  1549     1550     1630         1       119.860      4.016640E+02     ; C-C-H, prebuilt cp-ca-ha
  1551     1550     1630         1       119.880      4.033376E+02     ; C-C-H, prebuilt ca-ca-ha
  1550     1551     1552         1       120.020      5.573088E+02     ; C-C-C, prebuilt ca-ca-ca
  1550     1551     1631         1       119.880      4.033376E+02     ; C-C-H, prebuilt ca-ca-ha
  1552     1551     1631         1       119.880      4.033376E+02     ; C-C-H, prebuilt ca-ca-ha
  1551     1552     1553         1       120.020      5.573088E+02     ; C-C-C, prebuilt ca-ca-ca
  1551     1552     1558         1       120.330      5.380624E+02     ; C-C-C, prebuilt c-ca-ca
  1553     1552     1558         1       120.330      5.380624E+02     ; C-C-C, prebuilt c-ca-ca
  1552     1553     1554         1       120.020      5.573088E+02     ; C-C-C, prebuilt ca-ca-ca
  1552     1553     1555         1       120.330      5.380624E+02     ; C-C-C, prebuilt c-ca-ca
  1554     1553     1555         1       120.330      5.380624E+02     ; C-C-C, prebuilt c-ca-ca
  1549     1554     1553         1       120.690      5.547984E+02     ; C-C-C, prebuilt ca-ca-cp
  1549     1554     1632         1       119.860      4.016640E+02     ; C-C-H, prebuilt cp-ca-ha
  1553     1554     1632         1       119.880      4.033376E+02     ; C-C-H, prebuilt ca-ca-ha
  1553     1555     1556         1       122.600      5.748816E+02     ; C-C-O, prebuilt ca-c-o
  1553     1555     1557         1       115.250      5.665136E+02     ; C-C-N, prebuilt ca-c-n
  1556     1555     1557         1       123.050      6.209056E+02     ; O-C-N, prebuilt n-c-o
  1555     1557     1558         1       127.080      5.330416E+02     ; C-N-C, prebuilt c-n-c
  1555     1557     1560         1       123.710      5.338784E+02     ; C-N-C, prebuilt c-n-ca
  1558     1557     1560         1       123.710      5.338784E+02     ; C-N-C, prebuilt c-n-ca
  1552     1558     1557         1       115.250      5.665136E+02     ; C-C-N, prebuilt ca-c-n
  1552     1558     1559         1       122.600      5.748816E+02     ; C-C-O, prebuilt ca-c-o
  1557     1558     1559         1       123.050      6.209056E+02     ; N-C-O, prebuilt n-c-o
  1557     1560     1561         1       120.190      5.681872E+02     ; N-C-C, prebuilt ca-ca-n
  1557     1560     1565         1       120.190      5.681872E+02     ; N-C-C, prebuilt ca-ca-n
  1561     1560     1565         1       120.020      5.573088E+02     ; C-C-C, prebuilt ca-ca-ca
  1560     1561     1562         1       120.020      5.573088E+02     ; C-C-C, prebuilt ca-ca-ca
  1560     1561     1633         1       119.880      4.033376E+02     ; C-C-H, prebuilt ca-ca-ha
  1562     1561     1633         1       119.880      4.033376E+02     ; C-C-H, prebuilt ca-ca-ha
  1561     1562     1563         1       120.020      5.573088E+02     ; C-C-C, prebuilt ca-ca-ca
  1561     1562     1634         1       119.880      4.033376E+02     ; C-C-H, prebuilt ca-ca-ha
  1563     1562     1634         1       119.880      4.033376E+02     ; C-C-H, prebuilt ca-ca-ha
  1562     1563     1564         1       120.020      5.573088E+02     ; C-C-C, prebuilt ca-ca-ca
  1562     1563     1566         1       120.190      5.681872E+02     ; C-C-N, prebuilt ca-ca-n
  1564     1563     1566         1       120.190      5.681872E+02     ; C-C-N, prebuilt ca-ca-n
  1563     1564     1565         1       120.020      5.573088E+02     ; C-C-C, prebuilt ca-ca-ca
  1563     1564     1635         1       119.880      4.033376E+02     ; C-C-H, prebuilt ca-ca-ha
  1565     1564     1635         1       119.880      4.033376E+02     ; C-C-H, prebuilt ca-ca-ha
  1560     1565     1564         1       120.020      5.573088E+02     ; C-C-C, prebuilt ca-ca-ca
  1560     1565     1636         1       119.880      4.033376E+02     ; C-C-H, prebuilt ca-ca-ha
  1564     1565     1636         1       119.880      4.033376E+02     ; C-C-H, prebuilt ca-ca-ha
  1563     1566     1567         1       123.710      5.338784E+02     ; C-N-C, prebuilt c-n-ca
  1563     1566     1637         1       116.000      3.983168E+02     ; C-N-H, prebuilt ca-n-hn
  1567     1566     1637         1       117.550      4.041744E+02     ; C-N-H, prebuilt c-n-hn
  1566     1567     1568         1       123.050      6.209056E+02     ; N-C-O, prebuilt n-c-o
  1566     1567     1569         1       115.250      5.665136E+02     ; N-C-C, prebuilt ca-c-n
  1568     1567     1569         1       122.600      5.748816E+02     ; O-C-C, prebuilt ca-c-o
  1567     1569     1570         1       120.330      5.380624E+02     ; C-C-C, prebuilt c-ca-ca
  1567     1569     1574         1       120.330      5.380624E+02     ; C-C-C, prebuilt c-ca-ca
  1570     1569     1574         1       120.020      5.573088E+02     ; C-C-C, prebuilt ca-ca-ca
  1569     1570     1571         1       120.020      5.573088E+02     ; C-C-C, prebuilt ca-ca-ca
  1569     1570     1638         1       119.880      4.033376E+02     ; C-C-H, prebuilt ca-ca-ha
  1571     1570     1638         1       119.880      4.033376E+02     ; C-C-H, prebuilt ca-ca-ha
  1570     1571     1572         1       120.020      5.573088E+02     ; C-C-C, prebuilt ca-ca-ca
  1570     1571     1639         1       119.880      4.033376E+02     ; C-C-H, prebuilt ca-ca-ha
  1572     1571     1639         1       119.880      4.033376E+02     ; C-C-H, prebuilt ca-ca-ha
  1571     1572     1573         1       120.020      5.573088E+02     ; C-C-C, prebuilt ca-ca-ca
  1571     1572     1629         1       120.770      5.313680E+02     ; C-C-C, prebuilt c3-ca-ca
  1573     1572     1629         1       120.770      5.313680E+02     ; C-C-C, prebuilt c3-ca-ca
  1572     1573     1574         1       120.020      5.573088E+02     ; C-C-C, prebuilt ca-ca-ca
  1572     1573     1640         1       119.880      4.033376E+02     ; C-C-H, prebuilt ca-ca-ha
  1574     1573     1640         1       119.880      4.033376E+02     ; C-C-H, prebuilt ca-ca-ha
  1569     1574     1573         1       120.020      5.573088E+02     ; C-C-C, prebuilt ca-ca-ca
  1569     1574     1575         1       120.190      5.681872E+02     ; C-C-N, prebuilt ca-ca-n
  1573     1574     1575         1       120.190      5.681872E+02     ; C-C-N, prebuilt ca-ca-n
  1574     1575     1576         1       123.710      5.338784E+02     ; C-N-C, prebuilt c-n-ca
  1574     1575     1580         1       123.710      5.338784E+02     ; C-N-C, prebuilt c-n-ca
  1576     1575     1580         1       127.080      5.330416E+02     ; C-N-C, prebuilt c-n-c
  1575     1576     1577         1       123.050      6.209056E+02     ; N-C-O, prebuilt n-c-o
  1575     1576     1578         1       115.250      5.665136E+02     ; N-C-C, prebuilt ca-c-n
  1577     1576     1578         1       122.600      5.748816E+02     ; O-C-C, prebuilt ca-c-o
  1576     1578     1579         1       120.330      5.380624E+02     ; C-C-C, prebuilt c-ca-ca
  1576     1578     1585         1       120.330      5.380624E+02     ; C-C-C, prebuilt c-ca-ca
  1579     1578     1585         1       120.020      5.573088E+02     ; C-C-C, prebuilt ca-ca-ca
  1578     1579     1580         1       120.330      5.380624E+02     ; C-C-C, prebuilt c-ca-ca
  1578     1579     1582         1       120.020      5.573088E+02     ; C-C-C, prebuilt ca-ca-ca
  1580     1579     1582         1       120.330      5.380624E+02     ; C-C-C, prebuilt c-ca-ca
  1575     1580     1579         1       115.250      5.665136E+02     ; N-C-C, prebuilt ca-c-n
  1575     1580     1581         1       123.050      6.209056E+02     ; N-C-O, prebuilt n-c-o
  1579     1580     1581         1       122.600      5.748816E+02     ; C-C-O, prebuilt ca-c-o
  1579     1582     1583         1       120.020      5.573088E+02     ; C-C-C, prebuilt ca-ca-ca
  1579     1582     1641         1       119.880      4.033376E+02     ; C-C-H, prebuilt ca-ca-ha
  1583     1582     1641         1       119.880      4.033376E+02     ; C-C-H, prebuilt ca-ca-ha
  1582     1583     1584         1       120.020      5.573088E+02     ; C-C-C, prebuilt ca-ca-ca
  1582     1583     1586         1       120.330      5.380624E+02     ; C-C-C, prebuilt c-ca-ca
  1584     1583     1586         1       120.330      5.380624E+02     ; C-C-C, prebuilt c-ca-ca
  1583     1584     1585         1       120.020      5.573088E+02     ; C-C-C, prebuilt ca-ca-ca
  1583     1584     1642         1       119.880      4.033376E+02     ; C-C-H, prebuilt ca-ca-ha
  1585     1584     1642         1       119.880      4.033376E+02     ; C-C-H, prebuilt ca-ca-ha
  1578     1585     1584         1       120.020      5.573088E+02     ; C-C-C, prebuilt ca-ca-ca
  1578     1585     1643         1       119.880      4.033376E+02     ; C-C-H, prebuilt ca-ca-ha
  1584     1585     1643         1       119.880      4.033376E+02     ; C-C-H, prebuilt ca-ca-ha
  1583     1586     1587         1       122.600      5.748816E+02     ; C-C-O, prebuilt ca-c-o
  1583     1586     1588         1       115.250      5.665136E+02     ; C-C-N, prebuilt ca-c-n
  1587     1586     1588         1       123.050      6.209056E+02     ; O-C-N, prebuilt n-c-o
  1586     1588     1589         1       123.710      5.338784E+02     ; C-N-C, prebuilt c-n-ca
  1586     1588     1644         1       117.550      4.041744E+02     ; C-N-H, prebuilt c-n-hn
  1589     1588     1644         1       116.000      3.983168E+02     ; C-N-H, prebuilt ca-n-hn
  1588     1589     1590         1       120.190      5.681872E+02     ; N-C-C, prebuilt ca-ca-n
  1588     1589     1594         1       120.190      5.681872E+02     ; N-C-C, prebuilt ca-ca-n
  1590     1589     1594         1       120.020      5.573088E+02     ; C-C-C, prebuilt ca-ca-ca
  1589     1590     1591         1       120.020      5.573088E+02     ; C-C-C, prebuilt ca-ca-ca
  1589     1590     1645         1       119.880      4.033376E+02     ; C-C-H, prebuilt ca-ca-ha
  1591     1590     1645         1       119.880      4.033376E+02     ; C-C-H, prebuilt ca-ca-ha
  1590     1591     1592         1       120.020      5.573088E+02     ; C-C-C, prebuilt ca-ca-ca
  1590     1591     1646         1       119.880      4.033376E+02     ; C-C-H, prebuilt ca-ca-ha
  1592     1591     1646         1       119.880      4.033376E+02     ; C-C-H, prebuilt ca-ca-ha
  1591     1592     1593         1       120.020      5.573088E+02     ; C-C-C, prebuilt ca-ca-ca
  1591     1592     1595         1       119.200      5.824128E+02     ; C-C-O, prebuilt ca-ca-os
  1593     1592     1595         1       119.200      5.824128E+02     ; C-C-O, prebuilt ca-ca-os
  1592     1593     1594         1       120.020      5.573088E+02     ; C-C-C, prebuilt ca-ca-ca
  1592     1593     1647         1       119.880      4.033376E+02     ; C-C-H, prebuilt ca-ca-ha
  1594     1593     1647         1       119.880      4.033376E+02     ; C-C-H, prebuilt ca-ca-ha
  1589     1594     1593         1       120.020      5.573088E+02     ; C-C-C, prebuilt ca-ca-ca
  1589     1594     1648         1       119.880      4.033376E+02     ; C-C-H, prebuilt ca-ca-ha
  1593     1594     1648         1       119.880      4.033376E+02     ; C-C-H, prebuilt ca-ca-ha
  1592     1595     1596         1       119.890      5.313680E+02     ; C-O-C, prebuilt ca-os-ca
  1595     1596     1597         1       119.200      5.824128E+02     ; O-C-C, prebuilt ca-ca-os
  1595     1596     1601         1       119.200      5.824128E+02     ; O-C-C, prebuilt ca-ca-os
  1597     1596     1601         1       120.020      5.573088E+02     ; C-C-C, prebuilt ca-ca-ca
  1596     1597     1598         1       120.020      5.573088E+02     ; C-C-C, prebuilt ca-ca-ca
  1596     1597     1649         1       119.880      4.033376E+02     ; C-C-H, prebuilt ca-ca-ha
  1598     1597     1649         1       119.880      4.033376E+02     ; C-C-H, prebuilt ca-ca-ha
  1597     1598     1599         1       120.020      5.573088E+02     ; C-C-C, prebuilt ca-ca-ca
  1597     1598     1650         1       119.880      4.033376E+02     ; C-C-H, prebuilt ca-ca-ha
  1599     1598     1650         1       119.880      4.033376E+02     ; C-C-H, prebuilt ca-ca-ha
  1598     1599     1600         1       120.020      5.573088E+02     ; C-C-C, prebuilt ca-ca-ca
  1598     1599     1651         1       119.880      4.033376E+02     ; C-C-H, prebuilt ca-ca-ha
  1600     1599     1651         1       119.880      4.033376E+02     ; C-C-H, prebuilt ca-ca-ha
  1599     1600     1601         1       120.020      5.573088E+02     ; C-C-C, prebuilt ca-ca-ca
  1599     1600     1652         1       119.880      4.033376E+02     ; C-C-H, prebuilt ca-ca-ha
  1601     1600     1652         1       119.880      4.033376E+02     ; C-C-H, prebuilt ca-ca-ha
  1596     1601     1600         1       120.020      5.573088E+02     ; C-C-C, prebuilt ca-ca-ca
  1596     1601     1602         1       119.200      5.824128E+02     ; C-C-O, prebuilt ca-ca-os
  1600     1601     1602         1       119.200      5.824128E+02     ; C-C-O, prebuilt ca-ca-os
  1601     1602     1603         1       119.890      5.313680E+02     ; C-O-C, prebuilt ca-os-ca
  1602     1603     1604         1       119.200      5.824128E+02     ; O-C-C, prebuilt ca-ca-os
  1602     1603     1608         1       119.200      5.824128E+02     ; O-C-C, prebuilt ca-ca-os
  1604     1603     1608         1       120.020      5.573088E+02     ; C-C-C, prebuilt ca-ca-ca
  1603     1604     1605         1       120.020      5.573088E+02     ; C-C-C, prebuilt ca-ca-ca
  1603     1604     1653         1       119.880      4.033376E+02     ; C-C-H, prebuilt ca-ca-ha
  1605     1604     1653         1       119.880      4.033376E+02     ; C-C-H, prebuilt ca-ca-ha
  1604     1605     1606         1       120.020      5.573088E+02     ; C-C-C, prebuilt ca-ca-ca
  1604     1605     1654         1       119.880      4.033376E+02     ; C-C-H, prebuilt ca-ca-ha
  1606     1605     1654         1       119.880      4.033376E+02     ; C-C-H, prebuilt ca-ca-ha
  1605     1606     1607         1       120.020      5.573088E+02     ; C-C-C, prebuilt ca-ca-ca
  1605     1606     1609         1       120.190      5.681872E+02     ; C-C-N, prebuilt ca-ca-n
  1607     1606     1609         1       120.190      5.681872E+02     ; C-C-N, prebuilt ca-ca-n
  1606     1607     1608         1       120.020      5.573088E+02     ; C-C-C, prebuilt ca-ca-ca
  1606     1607     1655         1       119.880      4.033376E+02     ; C-C-H, prebuilt ca-ca-ha
  1608     1607     1655         1       119.880      4.033376E+02     ; C-C-H, prebuilt ca-ca-ha
  1603     1608     1607         1       120.020      5.573088E+02     ; C-C-C, prebuilt ca-ca-ca
  1603     1608     1656         1       119.880      4.033376E+02     ; C-C-H, prebuilt ca-ca-ha
  1607     1608     1656         1       119.880      4.033376E+02     ; C-C-H, prebuilt ca-ca-ha
  1606     1609     1610         1       123.710      5.338784E+02     ; C-N-C, prebuilt c-n-ca
  1606     1609     1657         1       116.000      3.983168E+02     ; C-N-H, prebuilt ca-n-hn
  1610     1609     1657         1       117.550      4.041744E+02     ; C-N-H, prebuilt c-n-hn
  1609     1610     1611         1       123.050      6.209056E+02     ; N-C-O, prebuilt n-c-o
  1609     1610     1612         1       115.250      5.665136E+02     ; N-C-C, prebuilt ca-c-n
  1611     1610     1612         1       122.600      5.748816E+02     ; O-C-C, prebuilt ca-c-o
  1610     1612     1613         1       120.330      5.380624E+02     ; C-C-C, prebuilt c-ca-ca
  1610     1612     1617         1       120.330      5.380624E+02     ; C-C-C, prebuilt c-ca-ca
  1613     1612     1617         1       120.020      5.573088E+02     ; C-C-C, prebuilt ca-ca-ca
  1612     1613     1614         1       120.020      5.573088E+02     ; C-C-C, prebuilt ca-ca-ca
  1612     1613     1658         1       119.880      4.033376E+02     ; C-C-H, prebuilt ca-ca-ha
  1614     1613     1658         1       119.880      4.033376E+02     ; C-C-H, prebuilt ca-ca-ha
  1613     1614     1615         1       120.020      5.573088E+02     ; C-C-C, prebuilt ca-ca-ca
  1613     1614     1659         1       119.880      4.033376E+02     ; C-C-H, prebuilt ca-ca-ha
  1615     1614     1659         1       119.880      4.033376E+02     ; C-C-H, prebuilt ca-ca-ha
  1614     1615     1616         1       120.020      5.573088E+02     ; C-C-C, prebuilt ca-ca-ca
  1614     1615     1618         1       120.190      5.681872E+02     ; C-C-N, prebuilt ca-ca-n
  1616     1615     1618         1       120.190      5.681872E+02     ; C-C-N, prebuilt ca-ca-n
  1615     1616     1617         1       120.020      5.573088E+02     ; C-C-C, prebuilt ca-ca-ca
  1615     1616     1660         1       119.880      4.033376E+02     ; C-C-H, prebuilt ca-ca-ha
  1617     1616     1660         1       119.880      4.033376E+02     ; C-C-H, prebuilt ca-ca-ha
  1612     1617     1616         1       120.020      5.573088E+02     ; C-C-C, prebuilt ca-ca-ca
  1612     1617     1661         1       119.880      4.033376E+02     ; C-C-H, prebuilt ca-ca-ha
  1616     1617     1661         1       119.880      4.033376E+02     ; C-C-H, prebuilt ca-ca-ha
  1615     1618     1619         1       123.710      5.338784E+02     ; C-N-C, prebuilt c-n-ca
  1615     1618     1623         1       123.710      5.338784E+02     ; C-N-C, prebuilt c-n-ca
  1619     1618     1623         1       127.080      5.330416E+02     ; C-N-C, prebuilt c-n-c
  1618     1619     1620         1       123.050      6.209056E+02     ; N-C-O, prebuilt n-c-o
  1618     1619     1621         1       115.250      5.665136E+02     ; N-C-C, prebuilt ca-c-n
  1620     1619     1621         1       122.600      5.748816E+02     ; O-C-C, prebuilt ca-c-o
  1619     1621     1622         1       120.330      5.380624E+02     ; C-C-C, prebuilt c-ca-ca
  1619     1621     1628         1       120.330      5.380624E+02     ; C-C-C, prebuilt c-ca-ca
  1622     1621     1628         1       120.020      5.573088E+02     ; C-C-C, prebuilt ca-ca-ca
  1621     1622     1623         1       120.330      5.380624E+02     ; C-C-C, prebuilt c-ca-ca
  1621     1622     1625         1       120.020      5.573088E+02     ; C-C-C, prebuilt ca-ca-ca
  1623     1622     1625         1       120.330      5.380624E+02     ; C-C-C, prebuilt c-ca-ca
  1618     1623     1622         1       115.250      5.665136E+02     ; N-C-C, prebuilt ca-c-n
  1618     1623     1624         1       123.050      6.209056E+02     ; N-C-O, prebuilt n-c-o
  1622     1623     1624         1       122.600      5.748816E+02     ; C-C-O, prebuilt ca-c-o
  1622     1625     1626         1       120.690      5.547984E+02     ; C-C-C, prebuilt ca-ca-cp
  1622     1625     1662         1       119.880      4.033376E+02     ; C-C-H, prebuilt ca-ca-ha
  1626     1625     1662         1       119.860      4.016640E+02     ; C-C-H, prebuilt cp-ca-ha
  1625     1626     1627         1       118.380      5.581456E+02     ; C-C-C, prebuilt ca-cp-ca
  1625     1626     1668         1       121.110      5.355520E+02     ; C-C-C, prebuilt ca-cp-cp
  1627     1626     1668         1       121.110      5.355520E+02     ; C-C-C, prebuilt ca-cp-cp
  1626     1627     1628         1       120.690      5.547984E+02     ; C-C-C, prebuilt ca-ca-cp
  1626     1627     1663         1       119.860      4.016640E+02     ; C-C-H, prebuilt cp-ca-ha
  1628     1627     1663         1       119.880      4.033376E+02     ; C-C-H, prebuilt ca-ca-ha
  1621     1628     1627         1       120.020      5.573088E+02     ; C-C-C, prebuilt ca-ca-ca
  1621     1628     1664         1       119.880      4.033376E+02     ; C-C-H, prebuilt ca-ca-ha
  1627     1628     1664         1       119.880      4.033376E+02     ; C-C-H, prebuilt ca-ca-ha
  1572     1629     1665         1       110.470      3.916224E+02     ; C-C-H, prebuilt ca-c3-hc
  1572     1629     1666         1       110.470      3.916224E+02     ; C-C-H, prebuilt ca-c3-hc
  1572     1629     1667         1       110.470      3.916224E+02     ; C-C-H, prebuilt ca-c3-hc
  1665     1629     1666         1       107.580      3.296992E+02     ; H-C-H, prebuilt hc-c3-hc
  1665     1629     1667         1       107.580      3.296992E+02     ; H-C-H, prebuilt hc-c3-hc
  1666     1629     1667         1       107.580      3.296992E+02     ; H-C-H, prebuilt hc-c3-hc
  1626     1668     1669         1       121.110      5.355520E+02     ; C-C-C, prebuilt ca-cp-cp
  1626     1668     1673         1       121.110      5.355520E+02     ; C-C-C, prebuilt ca-cp-cp
  1669     1668     1673         1       118.380      5.581456E+02     ; C-C-C, prebuilt ca-cp-ca
  1668     1669     1670         1       120.690      5.547984E+02     ; C-C-C, prebuilt ca-ca-cp
  1668     1669     1750         1       119.860      4.016640E+02     ; C-C-H, prebuilt cp-ca-ha
  1670     1669     1750         1       119.880      4.033376E+02     ; C-C-H, prebuilt ca-ca-ha
  1669     1670     1671         1       120.020      5.573088E+02     ; C-C-C, prebuilt ca-ca-ca
  1669     1670     1751         1       119.880      4.033376E+02     ; C-C-H, prebuilt ca-ca-ha
  1671     1670     1751         1       119.880      4.033376E+02     ; C-C-H, prebuilt ca-ca-ha
  1670     1671     1672         1       120.020      5.573088E+02     ; C-C-C, prebuilt ca-ca-ca
  1670     1671     1677         1       120.330      5.380624E+02     ; C-C-C, prebuilt c-ca-ca
  1672     1671     1677         1       120.330      5.380624E+02     ; C-C-C, prebuilt c-ca-ca
  1671     1672     1673         1       120.020      5.573088E+02     ; C-C-C, prebuilt ca-ca-ca
  1671     1672     1674         1       120.330      5.380624E+02     ; C-C-C, prebuilt c-ca-ca
  1673     1672     1674         1       120.330      5.380624E+02     ; C-C-C, prebuilt c-ca-ca
  1668     1673     1672         1       120.690      5.547984E+02     ; C-C-C, prebuilt ca-ca-cp
  1668     1673     1752         1       119.860      4.016640E+02     ; C-C-H, prebuilt cp-ca-ha
  1672     1673     1752         1       119.880      4.033376E+02     ; C-C-H, prebuilt ca-ca-ha
  1672     1674     1675         1       122.600      5.748816E+02     ; C-C-O, prebuilt ca-c-o
  1672     1674     1676         1       115.250      5.665136E+02     ; C-C-N, prebuilt ca-c-n
  1675     1674     1676         1       123.050      6.209056E+02     ; O-C-N, prebuilt n-c-o
  1674     1676     1677         1       127.080      5.330416E+02     ; C-N-C, prebuilt c-n-c
  1674     1676     1679         1       123.710      5.338784E+02     ; C-N-C, prebuilt c-n-ca
  1677     1676     1679         1       123.710      5.338784E+02     ; C-N-C, prebuilt c-n-ca
  1671     1677     1676         1       115.250      5.665136E+02     ; C-C-N, prebuilt ca-c-n
  1671     1677     1678         1       122.600      5.748816E+02     ; C-C-O, prebuilt ca-c-o
  1676     1677     1678         1       123.050      6.209056E+02     ; N-C-O, prebuilt n-c-o
  1676     1679     1680         1       120.190      5.681872E+02     ; N-C-C, prebuilt ca-ca-n
  1676     1679     1684         1       120.190      5.681872E+02     ; N-C-C, prebuilt ca-ca-n
  1680     1679     1684         1       120.020      5.573088E+02     ; C-C-C, prebuilt ca-ca-ca
  1679     1680     1681         1       120.020      5.573088E+02     ; C-C-C, prebuilt ca-ca-ca
  1679     1680     1753         1       119.880      4.033376E+02     ; C-C-H, prebuilt ca-ca-ha
  1681     1680     1753         1       119.880      4.033376E+02     ; C-C-H, prebuilt ca-ca-ha
  1680     1681     1682         1       120.020      5.573088E+02     ; C-C-C, prebuilt ca-ca-ca
  1680     1681     1754         1       119.880      4.033376E+02     ; C-C-H, prebuilt ca-ca-ha
  1682     1681     1754         1       119.880      4.033376E+02     ; C-C-H, prebuilt ca-ca-ha
  1681     1682     1683         1       120.020      5.573088E+02     ; C-C-C, prebuilt ca-ca-ca
  1681     1682     1685         1       120.190      5.681872E+02     ; C-C-N, prebuilt ca-ca-n
  1683     1682     1685         1       120.190      5.681872E+02     ; C-C-N, prebuilt ca-ca-n
  1682     1683     1684         1       120.020      5.573088E+02     ; C-C-C, prebuilt ca-ca-ca
  1682     1683     1755         1       119.880      4.033376E+02     ; C-C-H, prebuilt ca-ca-ha
  1684     1683     1755         1       119.880      4.033376E+02     ; C-C-H, prebuilt ca-ca-ha
  1679     1684     1683         1       120.020      5.573088E+02     ; C-C-C, prebuilt ca-ca-ca
  1679     1684     1756         1       119.880      4.033376E+02     ; C-C-H, prebuilt ca-ca-ha
  1683     1684     1756         1       119.880      4.033376E+02     ; C-C-H, prebuilt ca-ca-ha
  1682     1685     1686         1       123.710      5.338784E+02     ; C-N-C, prebuilt c-n-ca
  1682     1685     1757         1       116.000      3.983168E+02     ; C-N-H, prebuilt ca-n-hn
  1686     1685     1757         1       117.550      4.041744E+02     ; C-N-H, prebuilt c-n-hn
  1685     1686     1687         1       123.050      6.209056E+02     ; N-C-O, prebuilt n-c-o
  1685     1686     1688         1       115.250      5.665136E+02     ; N-C-C, prebuilt ca-c-n
  1687     1686     1688         1       122.600      5.748816E+02     ; O-C-C, prebuilt ca-c-o
  1686     1688     1689         1       120.330      5.380624E+02     ; C-C-C, prebuilt c-ca-ca
  1686     1688     1693         1       120.330      5.380624E+02     ; C-C-C, prebuilt c-ca-ca
  1689     1688     1693         1       120.020      5.573088E+02     ; C-C-C, prebuilt ca-ca-ca
  1688     1689     1690         1       120.020      5.573088E+02     ; C-C-C, prebuilt ca-ca-ca
  1688     1689     1758         1       119.880      4.033376E+02     ; C-C-H, prebuilt ca-ca-ha
  1690     1689     1758         1       119.880      4.033376E+02     ; C-C-H, prebuilt ca-ca-ha
  1689     1690     1691         1       120.020      5.573088E+02     ; C-C-C, prebuilt ca-ca-ca
  1689     1690     1759         1       119.880      4.033376E+02     ; C-C-H, prebuilt ca-ca-ha
  1691     1690     1759         1       119.880      4.033376E+02     ; C-C-H, prebuilt ca-ca-ha
  1690     1691     1692         1       120.020      5.573088E+02     ; C-C-C, prebuilt ca-ca-ca
  1690     1691     1749         1       120.770      5.313680E+02     ; C-C-C, prebuilt c3-ca-ca
  1692     1691     1749         1       120.770      5.313680E+02     ; C-C-C, prebuilt c3-ca-ca
  1691     1692     1693         1       120.020      5.573088E+02     ; C-C-C, prebuilt ca-ca-ca
  1691     1692     1760         1       119.880      4.033376E+02     ; C-C-H, prebuilt ca-ca-ha
  1693     1692     1760         1       119.880      4.033376E+02     ; C-C-H, prebuilt ca-ca-ha
  1688     1693     1692         1       120.020      5.573088E+02     ; C-C-C, prebuilt ca-ca-ca
  1688     1693     1694         1       120.190      5.681872E+02     ; C-C-N, prebuilt ca-ca-n
  1692     1693     1694         1       120.190      5.681872E+02     ; C-C-N, prebuilt ca-ca-n
  1693     1694     1695         1       123.710      5.338784E+02     ; C-N-C, prebuilt c-n-ca
  1693     1694     1699         1       123.710      5.338784E+02     ; C-N-C, prebuilt c-n-ca
  1695     1694     1699         1       127.080      5.330416E+02     ; C-N-C, prebuilt c-n-c
  1694     1695     1696         1       123.050      6.209056E+02     ; N-C-O, prebuilt n-c-o
  1694     1695     1697         1       115.250      5.665136E+02     ; N-C-C, prebuilt ca-c-n
  1696     1695     1697         1       122.600      5.748816E+02     ; O-C-C, prebuilt ca-c-o
  1695     1697     1698         1       120.330      5.380624E+02     ; C-C-C, prebuilt c-ca-ca
  1695     1697     1704         1       120.330      5.380624E+02     ; C-C-C, prebuilt c-ca-ca
  1698     1697     1704         1       120.020      5.573088E+02     ; C-C-C, prebuilt ca-ca-ca
  1697     1698     1699         1       120.330      5.380624E+02     ; C-C-C, prebuilt c-ca-ca
  1697     1698     1701         1       120.020      5.573088E+02     ; C-C-C, prebuilt ca-ca-ca
  1699     1698     1701         1       120.330      5.380624E+02     ; C-C-C, prebuilt c-ca-ca
  1694     1699     1698         1       115.250      5.665136E+02     ; N-C-C, prebuilt ca-c-n
  1694     1699     1700         1       123.050      6.209056E+02     ; N-C-O, prebuilt n-c-o
  1698     1699     1700         1       122.600      5.748816E+02     ; C-C-O, prebuilt ca-c-o
  1698     1701     1702         1       120.020      5.573088E+02     ; C-C-C, prebuilt ca-ca-ca
  1698     1701     1761         1       119.880      4.033376E+02     ; C-C-H, prebuilt ca-ca-ha
  1702     1701     1761         1       119.880      4.033376E+02     ; C-C-H, prebuilt ca-ca-ha
  1701     1702     1703         1       120.020      5.573088E+02     ; C-C-C, prebuilt ca-ca-ca
  1701     1702     1705         1       120.330      5.380624E+02     ; C-C-C, prebuilt c-ca-ca
  1703     1702     1705         1       120.330      5.380624E+02     ; C-C-C, prebuilt c-ca-ca
  1702     1703     1704         1       120.020      5.573088E+02     ; C-C-C, prebuilt ca-ca-ca
  1702     1703     1762         1       119.880      4.033376E+02     ; C-C-H, prebuilt ca-ca-ha
  1704     1703     1762         1       119.880      4.033376E+02     ; C-C-H, prebuilt ca-ca-ha
  1697     1704     1703         1       120.020      5.573088E+02     ; C-C-C, prebuilt ca-ca-ca
  1697     1704     1763         1       119.880      4.033376E+02     ; C-C-H, prebuilt ca-ca-ha
  1703     1704     1763         1       119.880      4.033376E+02     ; C-C-H, prebuilt ca-ca-ha
  1702     1705     1706         1       122.600      5.748816E+02     ; C-C-O, prebuilt ca-c-o
  1702     1705     1707         1       115.250      5.665136E+02     ; C-C-N, prebuilt ca-c-n
  1706     1705     1707         1       123.050      6.209056E+02     ; O-C-N, prebuilt n-c-o
  1705     1707     1708         1       123.710      5.338784E+02     ; C-N-C, prebuilt c-n-ca
  1705     1707     1764         1       117.550      4.041744E+02     ; C-N-H, prebuilt c-n-hn
  1708     1707     1764         1       116.000      3.983168E+02     ; C-N-H, prebuilt ca-n-hn
  1707     1708     1709         1       120.190      5.681872E+02     ; N-C-C, prebuilt ca-ca-n
  1707     1708     1713         1       120.190      5.681872E+02     ; N-C-C, prebuilt ca-ca-n
  1709     1708     1713         1       120.020      5.573088E+02     ; C-C-C, prebuilt ca-ca-ca
  1708     1709     1710         1       120.020      5.573088E+02     ; C-C-C, prebuilt ca-ca-ca
  1708     1709     1765         1       119.880      4.033376E+02     ; C-C-H, prebuilt ca-ca-ha
  1710     1709     1765         1       119.880      4.033376E+02     ; C-C-H, prebuilt ca-ca-ha
  1709     1710     1711         1       120.020      5.573088E+02     ; C-C-C, prebuilt ca-ca-ca
  1709     1710     1766         1       119.880      4.033376E+02     ; C-C-H, prebuilt ca-ca-ha
  1711     1710     1766         1       119.880      4.033376E+02     ; C-C-H, prebuilt ca-ca-ha
  1710     1711     1712         1       120.020      5.573088E+02     ; C-C-C, prebuilt ca-ca-ca
  1710     1711     1714         1       119.200      5.824128E+02     ; C-C-O, prebuilt ca-ca-os
  1712     1711     1714         1       119.200      5.824128E+02     ; C-C-O, prebuilt ca-ca-os
  1711     1712     1713         1       120.020      5.573088E+02     ; C-C-C, prebuilt ca-ca-ca
  1711     1712     1767         1       119.880      4.033376E+02     ; C-C-H, prebuilt ca-ca-ha
  1713     1712     1767         1       119.880      4.033376E+02     ; C-C-H, prebuilt ca-ca-ha
  1708     1713     1712         1       120.020      5.573088E+02     ; C-C-C, prebuilt ca-ca-ca
  1708     1713     1768         1       119.880      4.033376E+02     ; C-C-H, prebuilt ca-ca-ha
  1712     1713     1768         1       119.880      4.033376E+02     ; C-C-H, prebuilt ca-ca-ha
  1711     1714     1715         1       119.890      5.313680E+02     ; C-O-C, prebuilt ca-os-ca
  1714     1715     1716         1       119.200      5.824128E+02     ; O-C-C, prebuilt ca-ca-os
  1714     1715     1720         1       119.200      5.824128E+02     ; O-C-C, prebuilt ca-ca-os
  1716     1715     1720         1       120.020      5.573088E+02     ; C-C-C, prebuilt ca-ca-ca
  1715     1716     1717         1       120.020      5.573088E+02     ; C-C-C, prebuilt ca-ca-ca
  1715     1716     1769         1       119.880      4.033376E+02     ; C-C-H, prebuilt ca-ca-ha
  1717     1716     1769         1       119.880      4.033376E+02     ; C-C-H, prebuilt ca-ca-ha
  1716     1717     1718         1       120.020      5.573088E+02     ; C-C-C, prebuilt ca-ca-ca
  1716     1717     1770         1       119.880      4.033376E+02     ; C-C-H, prebuilt ca-ca-ha
  1718     1717     1770         1       119.880      4.033376E+02     ; C-C-H, prebuilt ca-ca-ha
  1717     1718     1719         1       120.020      5.573088E+02     ; C-C-C, prebuilt ca-ca-ca
  1717     1718     1771         1       119.880      4.033376E+02     ; C-C-H, prebuilt ca-ca-ha
  1719     1718     1771         1       119.880      4.033376E+02     ; C-C-H, prebuilt ca-ca-ha
  1718     1719     1720         1       120.020      5.573088E+02     ; C-C-C, prebuilt ca-ca-ca
  1718     1719     1772         1       119.880      4.033376E+02     ; C-C-H, prebuilt ca-ca-ha
  1720     1719     1772         1       119.880      4.033376E+02     ; C-C-H, prebuilt ca-ca-ha
  1715     1720     1719         1       120.020      5.573088E+02     ; C-C-C, prebuilt ca-ca-ca
  1715     1720     1721         1       119.200      5.824128E+02     ; C-C-O, prebuilt ca-ca-os
  1719     1720     1721         1       119.200      5.824128E+02     ; C-C-O, prebuilt ca-ca-os
  1720     1721     1722         1       119.890      5.313680E+02     ; C-O-C, prebuilt ca-os-ca
  1721     1722     1723         1       119.200      5.824128E+02     ; O-C-C, prebuilt ca-ca-os
  1721     1722     1727         1       119.200      5.824128E+02     ; O-C-C, prebuilt ca-ca-os
  1723     1722     1727         1       120.020      5.573088E+02     ; C-C-C, prebuilt ca-ca-ca
  1722     1723     1724         1       120.020      5.573088E+02     ; C-C-C, prebuilt ca-ca-ca
  1722     1723     1773         1       119.880      4.033376E+02     ; C-C-H, prebuilt ca-ca-ha
  1724     1723     1773         1       119.880      4.033376E+02     ; C-C-H, prebuilt ca-ca-ha
  1723     1724     1725         1       120.020      5.573088E+02     ; C-C-C, prebuilt ca-ca-ca
  1723     1724     1774         1       119.880      4.033376E+02     ; C-C-H, prebuilt ca-ca-ha
  1725     1724     1774         1       119.880      4.033376E+02     ; C-C-H, prebuilt ca-ca-ha
  1724     1725     1726         1       120.020      5.573088E+02     ; C-C-C, prebuilt ca-ca-ca
  1724     1725     1728         1       120.190      5.681872E+02     ; C-C-N, prebuilt ca-ca-n
  1726     1725     1728         1       120.190      5.681872E+02     ; C-C-N, prebuilt ca-ca-n
  1725     1726     1727         1       120.020      5.573088E+02     ; C-C-C, prebuilt ca-ca-ca
  1725     1726     1775         1       119.880      4.033376E+02     ; C-C-H, prebuilt ca-ca-ha
  1727     1726     1775         1       119.880      4.033376E+02     ; C-C-H, prebuilt ca-ca-ha
  1722     1727     1726         1       120.020      5.573088E+02     ; C-C-C, prebuilt ca-ca-ca
  1722     1727     1776         1       119.880      4.033376E+02     ; C-C-H, prebuilt ca-ca-ha
  1726     1727     1776         1       119.880      4.033376E+02     ; C-C-H, prebuilt ca-ca-ha
  1725     1728     1729         1       123.710      5.338784E+02     ; C-N-C, prebuilt c-n-ca
  1725     1728     1777         1       116.000      3.983168E+02     ; C-N-H, prebuilt ca-n-hn
  1729     1728     1777         1       117.550      4.041744E+02     ; C-N-H, prebuilt c-n-hn
  1728     1729     1730         1       123.050      6.209056E+02     ; N-C-O, prebuilt n-c-o
  1728     1729     1731         1       115.250      5.665136E+02     ; N-C-C, prebuilt ca-c-n
  1730     1729     1731         1       122.600      5.748816E+02     ; O-C-C, prebuilt ca-c-o
  1729     1731     1732         1       120.330      5.380624E+02     ; C-C-C, prebuilt c-ca-ca
  1729     1731     1736         1       120.330      5.380624E+02     ; C-C-C, prebuilt c-ca-ca
  1732     1731     1736         1       120.020      5.573088E+02     ; C-C-C, prebuilt ca-ca-ca
  1731     1732     1733         1       120.020      5.573088E+02     ; C-C-C, prebuilt ca-ca-ca
  1731     1732     1778         1       119.880      4.033376E+02     ; C-C-H, prebuilt ca-ca-ha
  1733     1732     1778         1       119.880      4.033376E+02     ; C-C-H, prebuilt ca-ca-ha
  1732     1733     1734         1       120.020      5.573088E+02     ; C-C-C, prebuilt ca-ca-ca
  1732     1733     1779         1       119.880      4.033376E+02     ; C-C-H, prebuilt ca-ca-ha
  1734     1733     1779         1       119.880      4.033376E+02     ; C-C-H, prebuilt ca-ca-ha
  1733     1734     1735         1       120.020      5.573088E+02     ; C-C-C, prebuilt ca-ca-ca
  1733     1734     1737         1       120.190      5.681872E+02     ; C-C-N, prebuilt ca-ca-n
  1735     1734     1737         1       120.190      5.681872E+02     ; C-C-N, prebuilt ca-ca-n
  1734     1735     1736         1       120.020      5.573088E+02     ; C-C-C, prebuilt ca-ca-ca
  1734     1735     1780         1       119.880      4.033376E+02     ; C-C-H, prebuilt ca-ca-ha
  1736     1735     1780         1       119.880      4.033376E+02     ; C-C-H, prebuilt ca-ca-ha
  1731     1736     1735         1       120.020      5.573088E+02     ; C-C-C, prebuilt ca-ca-ca
  1731     1736     1781         1       119.880      4.033376E+02     ; C-C-H, prebuilt ca-ca-ha
  1735     1736     1781         1       119.880      4.033376E+02     ; C-C-H, prebuilt ca-ca-ha
  1734     1737     1738         1       123.710      5.338784E+02     ; C-N-C, prebuilt c-n-ca
  1734     1737     1742         1       123.710      5.338784E+02     ; C-N-C, prebuilt c-n-ca
  1738     1737     1742         1       127.080      5.330416E+02     ; C-N-C, prebuilt c-n-c
  1737     1738     1739         1       123.050      6.209056E+02     ; N-C-O, prebuilt n-c-o
  1737     1738     1740         1       115.250      5.665136E+02     ; N-C-C, prebuilt ca-c-n
  1739     1738     1740         1       122.600      5.748816E+02     ; O-C-C, prebuilt ca-c-o
  1738     1740     1741         1       120.330      5.380624E+02     ; C-C-C, prebuilt c-ca-ca
  1738     1740     1747         1       120.330      5.380624E+02     ; C-C-C, prebuilt c-ca-ca
  1741     1740     1747         1       120.020      5.573088E+02     ; C-C-C, prebuilt ca-ca-ca
  1740     1741     1742         1       120.330      5.380624E+02     ; C-C-C, prebuilt c-ca-ca
  1740     1741     1744         1       120.020      5.573088E+02     ; C-C-C, prebuilt ca-ca-ca
  1742     1741     1744         1       120.330      5.380624E+02     ; C-C-C, prebuilt c-ca-ca
  1737     1742     1741         1       115.250      5.665136E+02     ; N-C-C, prebuilt ca-c-n
  1737     1742     1743         1       123.050      6.209056E+02     ; N-C-O, prebuilt n-c-o
  1741     1742     1743         1       122.600      5.748816E+02     ; C-C-O, prebuilt ca-c-o
  1741     1744     1745         1       120.020      5.573088E+02     ; C-C-C, prebuilt ca-ca-ca
  1741     1744     1782         1       119.880      4.033376E+02     ; C-C-H, prebuilt ca-ca-ha
  1745     1744     1782         1       119.880      4.033376E+02     ; C-C-H, prebuilt ca-ca-ha
  1744     1745     1746         1       120.020      5.573088E+02     ; C-C-C, prebuilt ca-ca-ca
  1744     1745     1748         1       119.880      4.033376E+02     ; C-C-H, prebuilt ca-ca-ha
  1746     1745     1748         1       119.880      4.033376E+02     ; C-C-H, prebuilt ca-ca-ha
  1745     1746     1747         1       120.020      5.573088E+02     ; C-C-C, prebuilt ca-ca-ca
  1745     1746     1783         1       119.880      4.033376E+02     ; C-C-H, prebuilt ca-ca-ha
  1747     1746     1783         1       119.880      4.033376E+02     ; C-C-H, prebuilt ca-ca-ha
  1740     1747     1746         1       120.020      5.573088E+02     ; C-C-C, prebuilt ca-ca-ca
  1740     1747     1784         1       119.880      4.033376E+02     ; C-C-H, prebuilt ca-ca-ha
  1746     1747     1784         1       119.880      4.033376E+02     ; C-C-H, prebuilt ca-ca-ha
  1691     1749     1785         1       110.470      3.916224E+02     ; C-C-H, prebuilt ca-c3-hc
  1691     1749     1786         1       110.470      3.916224E+02     ; C-C-H, prebuilt ca-c3-hc
  1691     1749     1787         1       110.470      3.916224E+02     ; C-C-H, prebuilt ca-c3-hc
  1785     1749     1786         1       107.580      3.296992E+02     ; H-C-H, prebuilt hc-c3-hc
  1785     1749     1787         1       107.580      3.296992E+02     ; H-C-H, prebuilt hc-c3-hc
  1786     1749     1787         1       107.580      3.296992E+02     ; H-C-H, prebuilt hc-c3-hc
 
[ dihedrals ] ; propers
;  atom_i   atom_j   atom_k   atom_l  functype   d0 (Deg.)   k (kJ/mol/rad^2)    ; Case of functype=2
;  atom_i   atom_j   atom_k   atom_l  functype  phase (Deg.)  kd (kJ/mol) pn     ; Case of functype=9
     1        2        3        4         9       180.000      15.16700    2     ; H-C-C-C, prebuilt X-ca-ca-X
     1        2        3       83         9       180.000      15.16700    2     ; H-C-C-H, prebuilt X-ca-ca-X
     1        2        7        6         9       180.000      15.16700    2     ; H-C-C-C, prebuilt X-ca-ca-X
     1        2        7       85         9       180.000      15.16700    2     ; H-C-C-H, prebuilt X-ca-ca-X
     2        3        4        5         9       180.000      15.16700    2     ; C-C-C-C, prebuilt X-ca-ca-X
     2        3        4       84         9       180.000      15.16700    2     ; C-C-C-H, prebuilt X-ca-ca-X
     2        7        6        5         9       180.000      15.16700    2     ; C-C-C-C, prebuilt X-ca-ca-X
     2        7        6        8         9       180.000      15.16700    2     ; C-C-C-C, prebuilt X-ca-ca-X
     3        2        7        6         9       180.000      15.16700    2     ; C-C-C-C, prebuilt X-ca-ca-X
     3        2        7       85         9       180.000      15.16700    2     ; C-C-C-H, prebuilt X-ca-ca-X
     3        4        5        6         9       180.000      15.16700    2     ; C-C-C-C, prebuilt X-ca-ca-X
     3        4        5       11         9       180.000      15.16700    2     ; C-C-C-C, prebuilt X-ca-ca-X
     4        3        2        7         9       180.000      15.16700    2     ; C-C-C-C, prebuilt X-ca-ca-X
     4        5        6        7         9       180.000      15.16700    2     ; C-C-C-C, prebuilt X-ca-ca-X
     4        5        6        8         9       180.000      15.16700    2     ; C-C-C-C, prebuilt X-ca-ca-X
     4        5       11       10         9       180.000       4.18400    2     ; C-C-C-N, prebuilt X-c-ca-X
     4        5       11       12         9       180.000       4.18400    2     ; C-C-C-O, prebuilt X-c-ca-X
     5        4        3       83         9       180.000      15.16700    2     ; C-C-C-H, prebuilt X-ca-ca-X
     5        6        7       85         9       180.000      15.16700    2     ; C-C-C-H, prebuilt X-ca-ca-X
     5        6        8        9         9       180.000       4.18400    2     ; C-C-C-O, prebuilt X-c-ca-X
     5        6        8       10         9       180.000       4.18400    2     ; C-C-C-N, prebuilt X-c-ca-X
     5       11       10        8         9       180.000      10.46000    2     ; C-C-N-C, prebuilt X-c-n-X
     5       11       10       13         9       180.000      10.46000    2     ; C-C-N-C, prebuilt X-c-n-X
     6        5        4       84         9       180.000      15.16700    2     ; C-C-C-H, prebuilt X-ca-ca-X
     6        5       11       10         9       180.000       4.18400    2     ; C-C-C-N, prebuilt X-c-ca-X
     6        5       11       12         9       180.000       4.18400    2     ; C-C-C-O, prebuilt X-c-ca-X
     6        8       10       11         9       180.000      10.46000    2     ; C-C-N-C, prebuilt X-c-n-X
     6        8       10       13         9       180.000      10.46000    2     ; C-C-N-C, prebuilt X-c-n-X
     7        2        3       83         9       180.000      15.16700    2     ; C-C-C-H, prebuilt X-ca-ca-X
     7        6        5       11         9       180.000      15.16700    2     ; C-C-C-C, prebuilt X-ca-ca-X
     7        6        8        9         9       180.000       4.18400    2     ; C-C-C-O, prebuilt X-c-ca-X
     7        6        8       10         9       180.000       4.18400    2     ; C-C-C-N, prebuilt X-c-ca-X
     8        6        5       11         9       180.000      15.16700    2     ; C-C-C-C, prebuilt X-ca-ca-X
     8        6        7       85         9       180.000      15.16700    2     ; C-C-C-H, prebuilt X-ca-ca-X
     8       10       11       12         9       180.000      10.46000    2     ; C-N-C-O, prebuilt X-c-n-X
     8       10       13       14         9       180.000       1.88280    2     ; C-N-C-C, prebuilt X-ca-n-X
     8       10       13       18         9       180.000       1.88280    2     ; C-N-C-C, prebuilt X-ca-n-X
     9        8       10       11         9       180.000      10.46000    2     ; O-C-N-C, prebuilt X-c-n-X
     9        8       10       13         9       180.000      10.46000    2     ; O-C-N-C, prebuilt X-c-n-X
    10       13       14       15         9       180.000      15.16700    2     ; N-C-C-C, prebuilt X-ca-ca-X
    10       13       14       86         9       180.000      15.16700    2     ; N-C-C-H, prebuilt X-ca-ca-X
    10       13       18       17         9       180.000      15.16700    2     ; N-C-C-C, prebuilt X-ca-ca-X
    10       13       18       89         9       180.000      15.16700    2     ; N-C-C-H, prebuilt X-ca-ca-X
    11        5        4       84         9       180.000      15.16700    2     ; C-C-C-H, prebuilt X-ca-ca-X
    11       10       13       14         9       180.000       1.88280    2     ; C-N-C-C, prebuilt X-ca-n-X
    11       10       13       18         9       180.000       1.88280    2     ; C-N-C-C, prebuilt X-ca-n-X
    12       11       10       13         9       180.000      10.46000    2     ; O-C-N-C, prebuilt X-c-n-X
    13       14       15       16         9       180.000      15.16700    2     ; C-C-C-C, prebuilt X-ca-ca-X
    13       14       15       87         9       180.000      15.16700    2     ; C-C-C-H, prebuilt X-ca-ca-X
    13       18       17       16         9       180.000      15.16700    2     ; C-C-C-C, prebuilt X-ca-ca-X
    13       18       17       88         9       180.000      15.16700    2     ; C-C-C-H, prebuilt X-ca-ca-X
    14       13       18       17         9       180.000      15.16700    2     ; C-C-C-C, prebuilt X-ca-ca-X
    14       13       18       89         9       180.000      15.16700    2     ; C-C-C-H, prebuilt X-ca-ca-X
    14       15       16       17         9       180.000      15.16700    2     ; C-C-C-C, prebuilt X-ca-ca-X
    14       15       16       19         9       180.000      15.16700    2     ; C-C-C-N, prebuilt X-ca-ca-X
    15       14       13       18         9       180.000      15.16700    2     ; C-C-C-C, prebuilt X-ca-ca-X
    15       16       17       18         9       180.000      15.16700    2     ; C-C-C-C, prebuilt X-ca-ca-X
    15       16       17       88         9       180.000      15.16700    2     ; C-C-C-H, prebuilt X-ca-ca-X
    15       16       19       20         9       180.000       1.88280    2     ; C-C-N-C, prebuilt X-ca-n-X
    15       16       19       90         9       180.000       1.88280    2     ; C-C-N-H, prebuilt X-ca-n-X
    16       15       14       86         9       180.000      15.16700    2     ; C-C-C-H, prebuilt X-ca-ca-X
    16       17       18       89         9       180.000      15.16700    2     ; C-C-C-H, prebuilt X-ca-ca-X
    16       19       20       21         9       180.000      10.46000    2     ; C-N-C-O, prebuilt X-c-n-X
    16       19       20       22         9       180.000      10.46000    2     ; C-N-C-C, prebuilt X-c-n-X
    17       16       15       87         9       180.000      15.16700    2     ; C-C-C-H, prebuilt X-ca-ca-X
    17       16       19       20         9       180.000       1.88280    2     ; C-C-N-C, prebuilt X-ca-n-X
    17       16       19       90         9       180.000       1.88280    2     ; C-C-N-H, prebuilt X-ca-n-X
    18       13       14       86         9       180.000      15.16700    2     ; C-C-C-H, prebuilt X-ca-ca-X
    18       17       16       19         9       180.000      15.16700    2     ; C-C-C-N, prebuilt X-ca-ca-X
    19       16       15       87         9       180.000      15.16700    2     ; N-C-C-H, prebuilt X-ca-ca-X
    19       16       17       88         9       180.000      15.16700    2     ; N-C-C-H, prebuilt X-ca-ca-X
    19       20       22       23         9       180.000       4.18400    2     ; N-C-C-C, prebuilt X-c-ca-X
    19       20       22       27         9       180.000       4.18400    2     ; N-C-C-C, prebuilt X-c-ca-X
    20       22       23       24         9       180.000      15.16700    2     ; C-C-C-C, prebuilt X-ca-ca-X
    20       22       23       91         9       180.000      15.16700    2     ; C-C-C-H, prebuilt X-ca-ca-X
    20       22       27       26         9       180.000      15.16700    2     ; C-C-C-C, prebuilt X-ca-ca-X
    20       22       27       28         9       180.000      15.16700    2     ; C-C-C-N, prebuilt X-ca-ca-X
    21       20       19       90         9       180.000      10.46000    2     ; O-C-N-H, prebuilt hn-n-c-o
    21       20       19       90         9         0.000       8.36800    1     ; O-C-N-H, prebuilt hn-n-c-o
    21       20       22       23         9       180.000       4.18400    2     ; O-C-C-C, prebuilt X-c-ca-X
    21       20       22       27         9       180.000       4.18400    2     ; O-C-C-C, prebuilt X-c-ca-X
    22       20       19       90         9       180.000      10.46000    2     ; C-C-N-H, prebuilt X-c-n-X
    22       23       24       25         9       180.000      15.16700    2     ; C-C-C-C, prebuilt X-ca-ca-X
    22       23       24       92         9       180.000      15.16700    2     ; C-C-C-H, prebuilt X-ca-ca-X
    22       27       26       25         9       180.000      15.16700    2     ; C-C-C-C, prebuilt X-ca-ca-X
    22       27       26       93         9       180.000      15.16700    2     ; C-C-C-H, prebuilt X-ca-ca-X
    22       27       28       29         9       180.000       1.88280    2     ; C-C-N-C, prebuilt X-ca-n-X
    22       27       28       33         9       180.000       1.88280    2     ; C-C-N-C, prebuilt X-ca-n-X
    23       22       27       26         9       180.000      15.16700    2     ; C-C-C-C, prebuilt X-ca-ca-X
    23       22       27       28         9       180.000      15.16700    2     ; C-C-C-N, prebuilt X-ca-ca-X
    23       24       25       26         9       180.000      15.16700    2     ; C-C-C-C, prebuilt X-ca-ca-X
    23       24       25       82         9       180.000      15.16700    2     ; C-C-C-C, prebuilt X-ca-ca-X
    24       23       22       27         9       180.000      15.16700    2     ; C-C-C-C, prebuilt X-ca-ca-X
    24       25       26       27         9       180.000      15.16700    2     ; C-C-C-C, prebuilt X-ca-ca-X
    24       25       26       93         9       180.000      15.16700    2     ; C-C-C-H, prebuilt X-ca-ca-X
    24       25       82      118         9         0.000       0.00000    2     ; C-C-C-H, prebuilt X-c3-ca-X
    24       25       82      119         9         0.000       0.00000    2     ; C-C-C-H, prebuilt X-c3-ca-X
    24       25       82      120         9         0.000       0.00000    2     ; C-C-C-H, prebuilt X-c3-ca-X
    25       24       23       91         9       180.000      15.16700    2     ; C-C-C-H, prebuilt X-ca-ca-X
    25       26       27       28         9       180.000      15.16700    2     ; C-C-C-N, prebuilt X-ca-ca-X
    26       25       24       92         9       180.000      15.16700    2     ; C-C-C-H, prebuilt X-ca-ca-X
    26       25       82      118         9         0.000       0.00000    2     ; C-C-C-H, prebuilt X-c3-ca-X
    26       25       82      119         9         0.000       0.00000    2     ; C-C-C-H, prebuilt X-c3-ca-X
    26       25       82      120         9         0.000       0.00000    2     ; C-C-C-H, prebuilt X-c3-ca-X
    26       27       28       29         9       180.000       1.88280    2     ; C-C-N-C, prebuilt X-ca-n-X
    26       27       28       33         9       180.000       1.88280    2     ; C-C-N-C, prebuilt X-ca-n-X
    27       22       23       91         9       180.000      15.16700    2     ; C-C-C-H, prebuilt X-ca-ca-X
    27       26       25       82         9       180.000      15.16700    2     ; C-C-C-C, prebuilt X-ca-ca-X
    27       28       29       30         9       180.000      10.46000    2     ; C-N-C-O, prebuilt X-c-n-X
    27       28       29       31         9       180.000      10.46000    2     ; C-N-C-C, prebuilt X-c-n-X
    27       28       33       32         9       180.000      10.46000    2     ; C-N-C-C, prebuilt X-c-n-X
    27       28       33       34         9       180.000      10.46000    2     ; C-N-C-O, prebuilt X-c-n-X
    28       27       26       93         9       180.000      15.16700    2     ; N-C-C-H, prebuilt X-ca-ca-X
    28       29       31       32         9       180.000       4.18400    2     ; N-C-C-C, prebuilt X-c-ca-X
    28       29       31       38         9       180.000       4.18400    2     ; N-C-C-C, prebuilt X-c-ca-X
    28       33       32       31         9       180.000       4.18400    2     ; N-C-C-C, prebuilt X-c-ca-X
    28       33       32       35         9       180.000       4.18400    2     ; N-C-C-C, prebuilt X-c-ca-X
    29       28       33       32         9       180.000      10.46000    2     ; C-N-C-C, prebuilt X-c-n-X
    29       28       33       34         9       180.000      10.46000    2     ; C-N-C-O, prebuilt X-c-n-X
    29       31       32       33         9       180.000      15.16700    2     ; C-C-C-C, prebuilt X-ca-ca-X
    29       31       32       35         9       180.000      15.16700    2     ; C-C-C-C, prebuilt X-ca-ca-X
    29       31       38       37         9       180.000      15.16700    2     ; C-C-C-C, prebuilt X-ca-ca-X
    29       31       38       96         9       180.000      15.16700    2     ; C-C-C-H, prebuilt X-ca-ca-X
    30       29       28       33         9       180.000      10.46000    2     ; O-C-N-C, prebuilt X-c-n-X
    30       29       31       32         9       180.000       4.18400    2     ; O-C-C-C, prebuilt X-c-ca-X
    30       29       31       38         9       180.000       4.18400    2     ; O-C-C-C, prebuilt X-c-ca-X
    31       29       28       33         9       180.000      10.46000    2     ; C-C-N-C, prebuilt X-c-n-X
    31       32       33       34         9       180.000       4.18400    2     ; C-C-C-O, prebuilt X-c-ca-X
    31       32       35       36         9       180.000      15.16700    2     ; C-C-C-C, prebuilt X-ca-ca-X
    31       32       35       94         9       180.000      15.16700    2     ; C-C-C-H, prebuilt X-ca-ca-X
    31       38       37       36         9       180.000      15.16700    2     ; C-C-C-C, prebuilt X-ca-ca-X
    31       38       37       95         9       180.000      15.16700    2     ; C-C-C-H, prebuilt X-ca-ca-X
    32       31       38       37         9       180.000      15.16700    2     ; C-C-C-C, prebuilt X-ca-ca-X
    32       31       38       96         9       180.000      15.16700    2     ; C-C-C-H, prebuilt X-ca-ca-X
    32       35       36       37         9       180.000      15.16700    2     ; C-C-C-C, prebuilt X-ca-ca-X
    32       35       36       39         9       180.000      15.16700    2     ; C-C-C-C, prebuilt X-ca-ca-X
    33       32       31       38         9       180.000      15.16700    2     ; C-C-C-C, prebuilt X-ca-ca-X
    33       32       35       36         9       180.000      15.16700    2     ; C-C-C-C, prebuilt X-ca-ca-X
    33       32       35       94         9       180.000      15.16700    2     ; C-C-C-H, prebuilt X-ca-ca-X
    34       33       32       35         9       180.000       4.18400    2     ; O-C-C-C, prebuilt X-c-ca-X
    35       32       31       38         9       180.000      15.16700    2     ; C-C-C-C, prebuilt X-ca-ca-X
    35       36       37       38         9       180.000      15.16700    2     ; C-C-C-C, prebuilt X-ca-ca-X
    35       36       37       95         9       180.000      15.16700    2     ; C-C-C-H, prebuilt X-ca-ca-X
    35       36       39       40         9       180.000       4.18400    2     ; C-C-C-O, prebuilt X-c-ca-X
    35       36       39       41         9       180.000       4.18400    2     ; C-C-C-N, prebuilt X-c-ca-X
    36       37       38       96         9       180.000      15.16700    2     ; C-C-C-H, prebuilt X-ca-ca-X
    36       39       41       42         9       180.000      10.46000    2     ; C-C-N-C, prebuilt X-c-n-X
    36       39       41       97         9       180.000      10.46000    2     ; C-C-N-H, prebuilt X-c-n-X
    37       36       35       94         9       180.000      15.16700    2     ; C-C-C-H, prebuilt X-ca-ca-X
    37       36       39       40         9       180.000       4.18400    2     ; C-C-C-O, prebuilt X-c-ca-X
    37       36       39       41         9       180.000       4.18400    2     ; C-C-C-N, prebuilt X-c-ca-X
    38       37       36       39         9       180.000      15.16700    2     ; C-C-C-C, prebuilt X-ca-ca-X
    39       36       35       94         9       180.000      15.16700    2     ; C-C-C-H, prebuilt X-ca-ca-X
    39       36       37       95         9       180.000      15.16700    2     ; C-C-C-H, prebuilt X-ca-ca-X
    39       41       42       43         9       180.000       1.88280    2     ; C-N-C-C, prebuilt X-ca-n-X
    39       41       42       47         9       180.000       1.88280    2     ; C-N-C-C, prebuilt X-ca-n-X
    40       39       41       42         9       180.000      10.46000    2     ; O-C-N-C, prebuilt X-c-n-X
    40       39       41       97         9       180.000      10.46000    2     ; O-C-N-H, prebuilt hn-n-c-o
    40       39       41       97         9         0.000       8.36800    1     ; O-C-N-H, prebuilt hn-n-c-o
    41       42       43       44         9       180.000      15.16700    2     ; N-C-C-C, prebuilt X-ca-ca-X
    41       42       43       98         9       180.000      15.16700    2     ; N-C-C-H, prebuilt X-ca-ca-X
    41       42       47       46         9       180.000      15.16700    2     ; N-C-C-C, prebuilt X-ca-ca-X
    41       42       47      101         9       180.000      15.16700    2     ; N-C-C-H, prebuilt X-ca-ca-X
    42       43       44       45         9       180.000      15.16700    2     ; C-C-C-C, prebuilt X-ca-ca-X
    42       43       44       99         9       180.000      15.16700    2     ; C-C-C-H, prebuilt X-ca-ca-X
    42       47       46       45         9       180.000      15.16700    2     ; C-C-C-C, prebuilt X-ca-ca-X
    42       47       46      100         9       180.000      15.16700    2     ; C-C-C-H, prebuilt X-ca-ca-X
    43       42       41       97         9       180.000       1.88280    2     ; C-C-N-H, prebuilt X-ca-n-X
    43       42       47       46         9       180.000      15.16700    2     ; C-C-C-C, prebuilt X-ca-ca-X
    43       42       47      101         9       180.000      15.16700    2     ; C-C-C-H, prebuilt X-ca-ca-X
    43       44       45       46         9       180.000      15.16700    2     ; C-C-C-C, prebuilt X-ca-ca-X
    43       44       45       48         9       180.000      15.16700    2     ; C-C-C-O, prebuilt X-ca-ca-X
    44       43       42       47         9       180.000      15.16700    2     ; C-C-C-C, prebuilt X-ca-ca-X
    44       45       46       47         9       180.000      15.16700    2     ; C-C-C-C, prebuilt X-ca-ca-X
    44       45       46      100         9       180.000      15.16700    2     ; C-C-C-H, prebuilt X-ca-ca-X
    44       45       48       49         9       180.000       3.76560    2     ; C-C-O-C, prebuilt X-ca-os-X
    45       44       43       98         9       180.000      15.16700    2     ; C-C-C-H, prebuilt X-ca-ca-X
    45       46       47      101         9       180.000      15.16700    2     ; C-C-C-H, prebuilt X-ca-ca-X
    45       48       49       50         9       180.000       3.76560    2     ; C-O-C-C, prebuilt X-ca-os-X
    45       48       49       54         9       180.000       3.76560    2     ; C-O-C-C, prebuilt X-ca-os-X
    46       45       44       99         9       180.000      15.16700    2     ; C-C-C-H, prebuilt X-ca-ca-X
    46       45       48       49         9       180.000       3.76560    2     ; C-C-O-C, prebuilt X-ca-os-X
    47       42       41       97         9       180.000       1.88280    2     ; C-C-N-H, prebuilt X-ca-n-X
    47       42       43       98         9       180.000      15.16700    2     ; C-C-C-H, prebuilt X-ca-ca-X
    47       46       45       48         9       180.000      15.16700    2     ; C-C-C-O, prebuilt X-ca-ca-X
    48       45       44       99         9       180.000      15.16700    2     ; O-C-C-H, prebuilt X-ca-ca-X
    48       45       46      100         9       180.000      15.16700    2     ; O-C-C-H, prebuilt X-ca-ca-X
    48       49       50       51         9       180.000      15.16700    2     ; O-C-C-C, prebuilt X-ca-ca-X
    48       49       50      102         9       180.000      15.16700    2     ; O-C-C-H, prebuilt X-ca-ca-X
    48       49       54       53         9       180.000      15.16700    2     ; O-C-C-C, prebuilt X-ca-ca-X
    48       49       54       55         9       180.000      15.16700    2     ; O-C-C-O, prebuilt X-ca-ca-X
    49       50       51       52         9       180.000      15.16700    2     ; C-C-C-C, prebuilt X-ca-ca-X
    49       50       51      103         9       180.000      15.16700    2     ; C-C-C-H, prebuilt X-ca-ca-X
    49       54       53       52         9       180.000      15.16700    2     ; C-C-C-C, prebuilt X-ca-ca-X
    49       54       53      105         9       180.000      15.16700    2     ; C-C-C-H, prebuilt X-ca-ca-X
    49       54       55       56         9       180.000       3.76560    2     ; C-C-O-C, prebuilt X-ca-os-X
    50       49       54       53         9       180.000      15.16700    2     ; C-C-C-C, prebuilt X-ca-ca-X
    50       49       54       55         9       180.000      15.16700    2     ; C-C-C-O, prebuilt X-ca-ca-X
    50       51       52       53         9       180.000      15.16700    2     ; C-C-C-C, prebuilt X-ca-ca-X
    50       51       52      104         9       180.000      15.16700    2     ; C-C-C-H, prebuilt X-ca-ca-X
    51       50       49       54         9       180.000      15.16700    2     ; C-C-C-C, prebuilt X-ca-ca-X
    51       52       53       54         9       180.000      15.16700    2     ; C-C-C-C, prebuilt X-ca-ca-X
    51       52       53      105         9       180.000      15.16700    2     ; C-C-C-H, prebuilt X-ca-ca-X
    52       51       50      102         9       180.000      15.16700    2     ; C-C-C-H, prebuilt X-ca-ca-X
    52       53       54       55         9       180.000      15.16700    2     ; C-C-C-O, prebuilt X-ca-ca-X
    53       52       51      103         9       180.000      15.16700    2     ; C-C-C-H, prebuilt X-ca-ca-X
    53       54       55       56         9       180.000       3.76560    2     ; C-C-O-C, prebuilt X-ca-os-X
    54       49       50      102         9       180.000      15.16700    2     ; C-C-C-H, prebuilt X-ca-ca-X
    54       53       52      104         9       180.000      15.16700    2     ; C-C-C-H, prebuilt X-ca-ca-X
    54       55       56       57         9       180.000       3.76560    2     ; C-O-C-C, prebuilt X-ca-os-X
    54       55       56       61         9       180.000       3.76560    2     ; C-O-C-C, prebuilt X-ca-os-X
    55       54       53      105         9       180.000      15.16700    2     ; O-C-C-H, prebuilt X-ca-ca-X
    55       56       57       58         9       180.000      15.16700    2     ; O-C-C-C, prebuilt X-ca-ca-X
    55       56       57      106         9       180.000      15.16700    2     ; O-C-C-H, prebuilt X-ca-ca-X
    55       56       61       60         9       180.000      15.16700    2     ; O-C-C-C, prebuilt X-ca-ca-X
    55       56       61      109         9       180.000      15.16700    2     ; O-C-C-H, prebuilt X-ca-ca-X
    56       57       58       59         9       180.000      15.16700    2     ; C-C-C-C, prebuilt X-ca-ca-X
    56       57       58      107         9       180.000      15.16700    2     ; C-C-C-H, prebuilt X-ca-ca-X
    56       61       60       59         9       180.000      15.16700    2     ; C-C-C-C, prebuilt X-ca-ca-X
    56       61       60      108         9       180.000      15.16700    2     ; C-C-C-H, prebuilt X-ca-ca-X
    57       56       61       60         9       180.000      15.16700    2     ; C-C-C-C, prebuilt X-ca-ca-X
    57       56       61      109         9       180.000      15.16700    2     ; C-C-C-H, prebuilt X-ca-ca-X
    57       58       59       60         9       180.000      15.16700    2     ; C-C-C-C, prebuilt X-ca-ca-X
    57       58       59       62         9       180.000      15.16700    2     ; C-C-C-N, prebuilt X-ca-ca-X
    58       57       56       61         9       180.000      15.16700    2     ; C-C-C-C, prebuilt X-ca-ca-X
    58       59       60       61         9       180.000      15.16700    2     ; C-C-C-C, prebuilt X-ca-ca-X
    58       59       60      108         9       180.000      15.16700    2     ; C-C-C-H, prebuilt X-ca-ca-X
    58       59       62       63         9       180.000       1.88280    2     ; C-C-N-C, prebuilt X-ca-n-X
    58       59       62      110         9       180.000       1.88280    2     ; C-C-N-H, prebuilt X-ca-n-X
    59       58       57      106         9       180.000      15.16700    2     ; C-C-C-H, prebuilt X-ca-ca-X
    59       60       61      109         9       180.000      15.16700    2     ; C-C-C-H, prebuilt X-ca-ca-X
    59       62       63       64         9       180.000      10.46000    2     ; C-N-C-O, prebuilt X-c-n-X
    59       62       63       65         9       180.000      10.46000    2     ; C-N-C-C, prebuilt X-c-n-X
    60       59       58      107         9       180.000      15.16700    2     ; C-C-C-H, prebuilt X-ca-ca-X
    60       59       62       63         9       180.000       1.88280    2     ; C-C-N-C, prebuilt X-ca-n-X
    60       59       62      110         9       180.000       1.88280    2     ; C-C-N-H, prebuilt X-ca-n-X
    61       56       57      106         9       180.000      15.16700    2     ; C-C-C-H, prebuilt X-ca-ca-X
    61       60       59       62         9       180.000      15.16700    2     ; C-C-C-N, prebuilt X-ca-ca-X
    62       59       58      107         9       180.000      15.16700    2     ; N-C-C-H, prebuilt X-ca-ca-X
    62       59       60      108         9       180.000      15.16700    2     ; N-C-C-H, prebuilt X-ca-ca-X
    62       63       65       66         9       180.000       4.18400    2     ; N-C-C-C, prebuilt X-c-ca-X
    62       63       65       70         9       180.000       4.18400    2     ; N-C-C-C, prebuilt X-c-ca-X
    63       65       66       67         9       180.000      15.16700    2     ; C-C-C-C, prebuilt X-ca-ca-X
    63       65       66      111         9       180.000      15.16700    2     ; C-C-C-H, prebuilt X-ca-ca-X
    63       65       70       69         9       180.000      15.16700    2     ; C-C-C-C, prebuilt X-ca-ca-X
    63       65       70      114         9       180.000      15.16700    2     ; C-C-C-H, prebuilt X-ca-ca-X
    64       63       62      110         9       180.000      10.46000    2     ; O-C-N-H, prebuilt hn-n-c-o
    64       63       62      110         9         0.000       8.36800    1     ; O-C-N-H, prebuilt hn-n-c-o
    64       63       65       66         9       180.000       4.18400    2     ; O-C-C-C, prebuilt X-c-ca-X
    64       63       65       70         9       180.000       4.18400    2     ; O-C-C-C, prebuilt X-c-ca-X
    65       63       62      110         9       180.000      10.46000    2     ; C-C-N-H, prebuilt X-c-n-X
    65       66       67       68         9       180.000      15.16700    2     ; C-C-C-C, prebuilt X-ca-ca-X
    65       66       67      112         9       180.000      15.16700    2     ; C-C-C-H, prebuilt X-ca-ca-X
    65       70       69       68         9       180.000      15.16700    2     ; C-C-C-C, prebuilt X-ca-ca-X
    65       70       69      113         9       180.000      15.16700    2     ; C-C-C-H, prebuilt X-ca-ca-X
    66       65       70       69         9       180.000      15.16700    2     ; C-C-C-C, prebuilt X-ca-ca-X
    66       65       70      114         9       180.000      15.16700    2     ; C-C-C-H, prebuilt X-ca-ca-X
    66       67       68       69         9       180.000      15.16700    2     ; C-C-C-C, prebuilt X-ca-ca-X
    66       67       68       71         9       180.000      15.16700    2     ; C-C-C-N, prebuilt X-ca-ca-X
    67       66       65       70         9       180.000      15.16700    2     ; C-C-C-C, prebuilt X-ca-ca-X
    67       68       69       70         9       180.000      15.16700    2     ; C-C-C-C, prebuilt X-ca-ca-X
    67       68       69      113         9       180.000      15.16700    2     ; C-C-C-H, prebuilt X-ca-ca-X
    67       68       71       72         9       180.000       1.88280    2     ; C-C-N-C, prebuilt X-ca-n-X
    67       68       71       76         9       180.000       1.88280    2     ; C-C-N-C, prebuilt X-ca-n-X
    68       67       66      111         9       180.000      15.16700    2     ; C-C-C-H, prebuilt X-ca-ca-X
    68       69       70      114         9       180.000      15.16700    2     ; C-C-C-H, prebuilt X-ca-ca-X
    68       71       72       73         9       180.000      10.46000    2     ; C-N-C-O, prebuilt X-c-n-X
    68       71       72       74         9       180.000      10.46000    2     ; C-N-C-C, prebuilt X-c-n-X
    68       71       76       75         9       180.000      10.46000    2     ; C-N-C-C, prebuilt X-c-n-X
    68       71       76       77         9       180.000      10.46000    2     ; C-N-C-O, prebuilt X-c-n-X
    69       68       67      112         9       180.000      15.16700    2     ; C-C-C-H, prebuilt X-ca-ca-X
    69       68       71       72         9       180.000       1.88280    2     ; C-C-N-C, prebuilt X-ca-n-X
    69       68       71       76         9       180.000       1.88280    2     ; C-C-N-C, prebuilt X-ca-n-X
    70       65       66      111         9       180.000      15.16700    2     ; C-C-C-H, prebuilt X-ca-ca-X
    70       69       68       71         9       180.000      15.16700    2     ; C-C-C-N, prebuilt X-ca-ca-X
    71       68       67      112         9       180.000      15.16700    2     ; N-C-C-H, prebuilt X-ca-ca-X
    71       68       69      113         9       180.000      15.16700    2     ; N-C-C-H, prebuilt X-ca-ca-X
    71       72       74       75         9       180.000       4.18400    2     ; N-C-C-C, prebuilt X-c-ca-X
    71       72       74       81         9       180.000       4.18400    2     ; N-C-C-C, prebuilt X-c-ca-X
    71       76       75       74         9       180.000       4.18400    2     ; N-C-C-C, prebuilt X-c-ca-X
    71       76       75       78         9       180.000       4.18400    2     ; N-C-C-C, prebuilt X-c-ca-X
    72       71       76       75         9       180.000      10.46000    2     ; C-N-C-C, prebuilt X-c-n-X
    72       71       76       77         9       180.000      10.46000    2     ; C-N-C-O, prebuilt X-c-n-X
    72       74       75       76         9       180.000      15.16700    2     ; C-C-C-C, prebuilt X-ca-ca-X
    72       74       75       78         9       180.000      15.16700    2     ; C-C-C-C, prebuilt X-ca-ca-X
    72       74       81       80         9       180.000      15.16700    2     ; C-C-C-C, prebuilt X-ca-ca-X
    72       74       81      117         9       180.000      15.16700    2     ; C-C-C-H, prebuilt X-ca-ca-X
    73       72       71       76         9       180.000      10.46000    2     ; O-C-N-C, prebuilt X-c-n-X
    73       72       74       75         9       180.000       4.18400    2     ; O-C-C-C, prebuilt X-c-ca-X
    73       72       74       81         9       180.000       4.18400    2     ; O-C-C-C, prebuilt X-c-ca-X
    74       72       71       76         9       180.000      10.46000    2     ; C-C-N-C, prebuilt X-c-n-X
    74       75       76       77         9       180.000       4.18400    2     ; C-C-C-O, prebuilt X-c-ca-X
    74       75       78       79         9       180.000      15.16700    2     ; C-C-C-C, prebuilt X-ca-ca-X
    74       75       78      115         9       180.000      15.16700    2     ; C-C-C-H, prebuilt X-ca-ca-X
    74       81       80       79         9       180.000      15.16700    2     ; C-C-C-C, prebuilt X-ca-ca-X
    74       81       80      116         9       180.000      15.16700    2     ; C-C-C-H, prebuilt X-ca-ca-X
    75       74       81       80         9       180.000      15.16700    2     ; C-C-C-C, prebuilt X-ca-ca-X
    75       74       81      117         9       180.000      15.16700    2     ; C-C-C-H, prebuilt X-ca-ca-X
    75       78       79       80         9       180.000      15.16700    2     ; C-C-C-C, prebuilt X-ca-cp-X
    75       78       79      121         9       180.000      15.16700    2     ; C-C-C-C, prebuilt X-ca-cp-X
    76       75       74       81         9       180.000      15.16700    2     ; C-C-C-C, prebuilt X-ca-ca-X
    76       75       78       79         9       180.000      15.16700    2     ; C-C-C-C, prebuilt X-ca-ca-X
    76       75       78      115         9       180.000      15.16700    2     ; C-C-C-H, prebuilt X-ca-ca-X
    77       76       75       78         9       180.000       4.18400    2     ; O-C-C-C, prebuilt X-c-ca-X
    78       75       74       81         9       180.000      15.16700    2     ; C-C-C-C, prebuilt X-ca-ca-X
    78       79       80       81         9       180.000      15.16700    2     ; C-C-C-C, prebuilt X-ca-cp-X
    78       79       80      116         9       180.000      15.16700    2     ; C-C-C-H, prebuilt X-ca-cp-X
    78       79      121      122         9       180.000       4.18400    2     ; C-C-C-C, prebuilt X-cp-cp-X
    78       79      121      126         9       180.000       4.18400    2     ; C-C-C-C, prebuilt X-cp-cp-X
    79       80       81      117         9       180.000      15.16700    2     ; C-C-C-H, prebuilt X-ca-ca-X
    79      121      122      123         9       180.000      15.16700    2     ; C-C-C-C, prebuilt X-ca-cp-X
    79      121      122      202         9       180.000      15.16700    2     ; C-C-C-H, prebuilt X-ca-cp-X
    79      121      126      125         9       180.000      15.16700    2     ; C-C-C-C, prebuilt X-ca-cp-X
    79      121      126      204         9       180.000      15.16700    2     ; C-C-C-H, prebuilt X-ca-cp-X
    80       79       78      115         9       180.000      15.16700    2     ; C-C-C-H, prebuilt X-ca-cp-X
    80       79      121      122         9       180.000       4.18400    2     ; C-C-C-C, prebuilt X-cp-cp-X
    80       79      121      126         9       180.000       4.18400    2     ; C-C-C-C, prebuilt X-cp-cp-X
    81       80       79      121         9       180.000      15.16700    2     ; C-C-C-C, prebuilt X-ca-cp-X
    82       25       24       92         9       180.000      15.16700    2     ; C-C-C-H, prebuilt X-ca-ca-X
    82       25       26       93         9       180.000      15.16700    2     ; C-C-C-H, prebuilt X-ca-ca-X
    83        3        4       84         9       180.000      15.16700    2     ; H-C-C-H, prebuilt X-ca-ca-X
    86       14       15       87         9       180.000      15.16700    2     ; H-C-C-H, prebuilt X-ca-ca-X
    88       17       18       89         9       180.000      15.16700    2     ; H-C-C-H, prebuilt X-ca-ca-X
    91       23       24       92         9       180.000      15.16700    2     ; H-C-C-H, prebuilt X-ca-ca-X
    95       37       38       96         9       180.000      15.16700    2     ; H-C-C-H, prebuilt X-ca-ca-X
    98       43       44       99         9       180.000      15.16700    2     ; H-C-C-H, prebuilt X-ca-ca-X
   100       46       47      101         9       180.000      15.16700    2     ; H-C-C-H, prebuilt X-ca-ca-X
   102       50       51      103         9       180.000      15.16700    2     ; H-C-C-H, prebuilt X-ca-ca-X
   103       51       52      104         9       180.000      15.16700    2     ; H-C-C-H, prebuilt X-ca-ca-X
   104       52       53      105         9       180.000      15.16700    2     ; H-C-C-H, prebuilt X-ca-ca-X
   106       57       58      107         9       180.000      15.16700    2     ; H-C-C-H, prebuilt X-ca-ca-X
   108       60       61      109         9       180.000      15.16700    2     ; H-C-C-H, prebuilt X-ca-ca-X
   111       66       67      112         9       180.000      15.16700    2     ; H-C-C-H, prebuilt X-ca-ca-X
   113       69       70      114         9       180.000      15.16700    2     ; H-C-C-H, prebuilt X-ca-ca-X
   115       78       79      121         9       180.000      15.16700    2     ; H-C-C-C, prebuilt X-ca-cp-X
   116       80       79      121         9       180.000      15.16700    2     ; H-C-C-C, prebuilt X-ca-cp-X
   116       80       81      117         9       180.000      15.16700    2     ; H-C-C-H, prebuilt X-ca-ca-X
   121      122      123      124         9       180.000      15.16700    2     ; C-C-C-C, prebuilt X-ca-ca-X
   121      122      123      203         9       180.000      15.16700    2     ; C-C-C-H, prebuilt X-ca-ca-X
   121      126      125      124         9       180.000      15.16700    2     ; C-C-C-C, prebuilt X-ca-ca-X
   121      126      125      127         9       180.000      15.16700    2     ; C-C-C-C, prebuilt X-ca-ca-X
   122      121      126      125         9       180.000      15.16700    2     ; C-C-C-C, prebuilt X-ca-cp-X
   122      121      126      204         9       180.000      15.16700    2     ; C-C-C-H, prebuilt X-ca-cp-X
   122      123      124      125         9       180.000      15.16700    2     ; C-C-C-C, prebuilt X-ca-ca-X
   122      123      124      130         9       180.000      15.16700    2     ; C-C-C-C, prebuilt X-ca-ca-X
   123      122      121      126         9       180.000      15.16700    2     ; C-C-C-C, prebuilt X-ca-cp-X
   123      124      125      126         9       180.000      15.16700    2     ; C-C-C-C, prebuilt X-ca-ca-X
   123      124      125      127         9       180.000      15.16700    2     ; C-C-C-C, prebuilt X-ca-ca-X
   123      124      130      129         9       180.000       4.18400    2     ; C-C-C-N, prebuilt X-c-ca-X
   123      124      130      131         9       180.000       4.18400    2     ; C-C-C-O, prebuilt X-c-ca-X
   124      123      122      202         9       180.000      15.16700    2     ; C-C-C-H, prebuilt X-ca-ca-X
   124      125      126      204         9       180.000      15.16700    2     ; C-C-C-H, prebuilt X-ca-ca-X
   124      125      127      128         9       180.000       4.18400    2     ; C-C-C-O, prebuilt X-c-ca-X
   124      125      127      129         9       180.000       4.18400    2     ; C-C-C-N, prebuilt X-c-ca-X
   124      130      129      127         9       180.000      10.46000    2     ; C-C-N-C, prebuilt X-c-n-X
   124      130      129      132         9       180.000      10.46000    2     ; C-C-N-C, prebuilt X-c-n-X
   125      124      123      203         9       180.000      15.16700    2     ; C-C-C-H, prebuilt X-ca-ca-X
   125      124      130      129         9       180.000       4.18400    2     ; C-C-C-N, prebuilt X-c-ca-X
   125      124      130      131         9       180.000       4.18400    2     ; C-C-C-O, prebuilt X-c-ca-X
   125      127      129      130         9       180.000      10.46000    2     ; C-C-N-C, prebuilt X-c-n-X
   125      127      129      132         9       180.000      10.46000    2     ; C-C-N-C, prebuilt X-c-n-X
   126      121      122      202         9       180.000      15.16700    2     ; C-C-C-H, prebuilt X-ca-cp-X
   126      125      124      130         9       180.000      15.16700    2     ; C-C-C-C, prebuilt X-ca-ca-X
   126      125      127      128         9       180.000       4.18400    2     ; C-C-C-O, prebuilt X-c-ca-X
   126      125      127      129         9       180.000       4.18400    2     ; C-C-C-N, prebuilt X-c-ca-X
   127      125      124      130         9       180.000      15.16700    2     ; C-C-C-C, prebuilt X-ca-ca-X
   127      125      126      204         9       180.000      15.16700    2     ; C-C-C-H, prebuilt X-ca-ca-X
   127      129      130      131         9       180.000      10.46000    2     ; C-N-C-O, prebuilt X-c-n-X
   127      129      132      133         9       180.000       1.88280    2     ; C-N-C-C, prebuilt X-ca-n-X
   127      129      132      137         9       180.000       1.88280    2     ; C-N-C-C, prebuilt X-ca-n-X
   128      127      129      130         9       180.000      10.46000    2     ; O-C-N-C, prebuilt X-c-n-X
   128      127      129      132         9       180.000      10.46000    2     ; O-C-N-C, prebuilt X-c-n-X
   129      132      133      134         9       180.000      15.16700    2     ; N-C-C-C, prebuilt X-ca-ca-X
   129      132      133      205         9       180.000      15.16700    2     ; N-C-C-H, prebuilt X-ca-ca-X
   129      132      137      136         9       180.000      15.16700    2     ; N-C-C-C, prebuilt X-ca-ca-X
   129      132      137      208         9       180.000      15.16700    2     ; N-C-C-H, prebuilt X-ca-ca-X
   130      124      123      203         9       180.000      15.16700    2     ; C-C-C-H, prebuilt X-ca-ca-X
   130      129      132      133         9       180.000       1.88280    2     ; C-N-C-C, prebuilt X-ca-n-X
   130      129      132      137         9       180.000       1.88280    2     ; C-N-C-C, prebuilt X-ca-n-X
   131      130      129      132         9       180.000      10.46000    2     ; O-C-N-C, prebuilt X-c-n-X
   132      133      134      135         9       180.000      15.16700    2     ; C-C-C-C, prebuilt X-ca-ca-X
   132      133      134      206         9       180.000      15.16700    2     ; C-C-C-H, prebuilt X-ca-ca-X
   132      137      136      135         9       180.000      15.16700    2     ; C-C-C-C, prebuilt X-ca-ca-X
   132      137      136      207         9       180.000      15.16700    2     ; C-C-C-H, prebuilt X-ca-ca-X
   133      132      137      136         9       180.000      15.16700    2     ; C-C-C-C, prebuilt X-ca-ca-X
   133      132      137      208         9       180.000      15.16700    2     ; C-C-C-H, prebuilt X-ca-ca-X
   133      134      135      136         9       180.000      15.16700    2     ; C-C-C-C, prebuilt X-ca-ca-X
   133      134      135      138         9       180.000      15.16700    2     ; C-C-C-N, prebuilt X-ca-ca-X
   134      133      132      137         9       180.000      15.16700    2     ; C-C-C-C, prebuilt X-ca-ca-X
   134      135      136      137         9       180.000      15.16700    2     ; C-C-C-C, prebuilt X-ca-ca-X
   134      135      136      207         9       180.000      15.16700    2     ; C-C-C-H, prebuilt X-ca-ca-X
   134      135      138      139         9       180.000       1.88280    2     ; C-C-N-C, prebuilt X-ca-n-X
   134      135      138      209         9       180.000       1.88280    2     ; C-C-N-H, prebuilt X-ca-n-X
   135      134      133      205         9       180.000      15.16700    2     ; C-C-C-H, prebuilt X-ca-ca-X
   135      136      137      208         9       180.000      15.16700    2     ; C-C-C-H, prebuilt X-ca-ca-X
   135      138      139      140         9       180.000      10.46000    2     ; C-N-C-O, prebuilt X-c-n-X
   135      138      139      141         9       180.000      10.46000    2     ; C-N-C-C, prebuilt X-c-n-X
   136      135      134      206         9       180.000      15.16700    2     ; C-C-C-H, prebuilt X-ca-ca-X
   136      135      138      139         9       180.000       1.88280    2     ; C-C-N-C, prebuilt X-ca-n-X
   136      135      138      209         9       180.000       1.88280    2     ; C-C-N-H, prebuilt X-ca-n-X
   137      132      133      205         9       180.000      15.16700    2     ; C-C-C-H, prebuilt X-ca-ca-X
   137      136      135      138         9       180.000      15.16700    2     ; C-C-C-N, prebuilt X-ca-ca-X
   138      135      134      206         9       180.000      15.16700    2     ; N-C-C-H, prebuilt X-ca-ca-X
   138      135      136      207         9       180.000      15.16700    2     ; N-C-C-H, prebuilt X-ca-ca-X
   138      139      141      142         9       180.000       4.18400    2     ; N-C-C-C, prebuilt X-c-ca-X
   138      139      141      146         9       180.000       4.18400    2     ; N-C-C-C, prebuilt X-c-ca-X
   139      141      142      143         9       180.000      15.16700    2     ; C-C-C-C, prebuilt X-ca-ca-X
   139      141      142      210         9       180.000      15.16700    2     ; C-C-C-H, prebuilt X-ca-ca-X
   139      141      146      145         9       180.000      15.16700    2     ; C-C-C-C, prebuilt X-ca-ca-X
   139      141      146      147         9       180.000      15.16700    2     ; C-C-C-N, prebuilt X-ca-ca-X
   140      139      138      209         9       180.000      10.46000    2     ; O-C-N-H, prebuilt hn-n-c-o
   140      139      138      209         9         0.000       8.36800    1     ; O-C-N-H, prebuilt hn-n-c-o
   140      139      141      142         9       180.000       4.18400    2     ; O-C-C-C, prebuilt X-c-ca-X
   140      139      141      146         9       180.000       4.18400    2     ; O-C-C-C, prebuilt X-c-ca-X
   141      139      138      209         9       180.000      10.46000    2     ; C-C-N-H, prebuilt X-c-n-X
   141      142      143      144         9       180.000      15.16700    2     ; C-C-C-C, prebuilt X-ca-ca-X
   141      142      143      211         9       180.000      15.16700    2     ; C-C-C-H, prebuilt X-ca-ca-X
   141      146      145      144         9       180.000      15.16700    2     ; C-C-C-C, prebuilt X-ca-ca-X
   141      146      145      212         9       180.000      15.16700    2     ; C-C-C-H, prebuilt X-ca-ca-X
   141      146      147      148         9       180.000       1.88280    2     ; C-C-N-C, prebuilt X-ca-n-X
   141      146      147      152         9       180.000       1.88280    2     ; C-C-N-C, prebuilt X-ca-n-X
   142      141      146      145         9       180.000      15.16700    2     ; C-C-C-C, prebuilt X-ca-ca-X
   142      141      146      147         9       180.000      15.16700    2     ; C-C-C-N, prebuilt X-ca-ca-X
   142      143      144      145         9       180.000      15.16700    2     ; C-C-C-C, prebuilt X-ca-ca-X
   142      143      144      201         9       180.000      15.16700    2     ; C-C-C-C, prebuilt X-ca-ca-X
   143      142      141      146         9       180.000      15.16700    2     ; C-C-C-C, prebuilt X-ca-ca-X
   143      144      145      146         9       180.000      15.16700    2     ; C-C-C-C, prebuilt X-ca-ca-X
   143      144      145      212         9       180.000      15.16700    2     ; C-C-C-H, prebuilt X-ca-ca-X
   143      144      201      237         9         0.000       0.00000    2     ; C-C-C-H, prebuilt X-c3-ca-X
   143      144      201      238         9         0.000       0.00000    2     ; C-C-C-H, prebuilt X-c3-ca-X
   143      144      201      239         9         0.000       0.00000    2     ; C-C-C-H, prebuilt X-c3-ca-X
   144      143      142      210         9       180.000      15.16700    2     ; C-C-C-H, prebuilt X-ca-ca-X
   144      145      146      147         9       180.000      15.16700    2     ; C-C-C-N, prebuilt X-ca-ca-X
   145      144      143      211         9       180.000      15.16700    2     ; C-C-C-H, prebuilt X-ca-ca-X
   145      144      201      237         9         0.000       0.00000    2     ; C-C-C-H, prebuilt X-c3-ca-X
   145      144      201      238         9         0.000       0.00000    2     ; C-C-C-H, prebuilt X-c3-ca-X
   145      144      201      239         9         0.000       0.00000    2     ; C-C-C-H, prebuilt X-c3-ca-X
   145      146      147      148         9       180.000       1.88280    2     ; C-C-N-C, prebuilt X-ca-n-X
   145      146      147      152         9       180.000       1.88280    2     ; C-C-N-C, prebuilt X-ca-n-X
   146      141      142      210         9       180.000      15.16700    2     ; C-C-C-H, prebuilt X-ca-ca-X
   146      145      144      201         9       180.000      15.16700    2     ; C-C-C-C, prebuilt X-ca-ca-X
   146      147      148      149         9       180.000      10.46000    2     ; C-N-C-O, prebuilt X-c-n-X
   146      147      148      150         9       180.000      10.46000    2     ; C-N-C-C, prebuilt X-c-n-X
   146      147      152      151         9       180.000      10.46000    2     ; C-N-C-C, prebuilt X-c-n-X
   146      147      152      153         9       180.000      10.46000    2     ; C-N-C-O, prebuilt X-c-n-X
   147      146      145      212         9       180.000      15.16700    2     ; N-C-C-H, prebuilt X-ca-ca-X
   147      148      150      151         9       180.000       4.18400    2     ; N-C-C-C, prebuilt X-c-ca-X
   147      148      150      157         9       180.000       4.18400    2     ; N-C-C-C, prebuilt X-c-ca-X
   147      152      151      150         9       180.000       4.18400    2     ; N-C-C-C, prebuilt X-c-ca-X
   147      152      151      154         9       180.000       4.18400    2     ; N-C-C-C, prebuilt X-c-ca-X
   148      147      152      151         9       180.000      10.46000    2     ; C-N-C-C, prebuilt X-c-n-X
   148      147      152      153         9       180.000      10.46000    2     ; C-N-C-O, prebuilt X-c-n-X
   148      150      151      152         9       180.000      15.16700    2     ; C-C-C-C, prebuilt X-ca-ca-X
   148      150      151      154         9       180.000      15.16700    2     ; C-C-C-C, prebuilt X-ca-ca-X
   148      150      157      156         9       180.000      15.16700    2     ; C-C-C-C, prebuilt X-ca-ca-X
   148      150      157      215         9       180.000      15.16700    2     ; C-C-C-H, prebuilt X-ca-ca-X
   149      148      147      152         9       180.000      10.46000    2     ; O-C-N-C, prebuilt X-c-n-X
   149      148      150      151         9       180.000       4.18400    2     ; O-C-C-C, prebuilt X-c-ca-X
   149      148      150      157         9       180.000       4.18400    2     ; O-C-C-C, prebuilt X-c-ca-X
   150      148      147      152         9       180.000      10.46000    2     ; C-C-N-C, prebuilt X-c-n-X
   150      151      152      153         9       180.000       4.18400    2     ; C-C-C-O, prebuilt X-c-ca-X
   150      151      154      155         9       180.000      15.16700    2     ; C-C-C-C, prebuilt X-ca-ca-X
   150      151      154      213         9       180.000      15.16700    2     ; C-C-C-H, prebuilt X-ca-ca-X
   150      157      156      155         9       180.000      15.16700    2     ; C-C-C-C, prebuilt X-ca-ca-X
   150      157      156      214         9       180.000      15.16700    2     ; C-C-C-H, prebuilt X-ca-ca-X
   151      150      157      156         9       180.000      15.16700    2     ; C-C-C-C, prebuilt X-ca-ca-X
   151      150      157      215         9       180.000      15.16700    2     ; C-C-C-H, prebuilt X-ca-ca-X
   151      154      155      156         9       180.000      15.16700    2     ; C-C-C-C, prebuilt X-ca-ca-X
   151      154      155      158         9       180.000      15.16700    2     ; C-C-C-C, prebuilt X-ca-ca-X
   152      151      150      157         9       180.000      15.16700    2     ; C-C-C-C, prebuilt X-ca-ca-X
   152      151      154      155         9       180.000      15.16700    2     ; C-C-C-C, prebuilt X-ca-ca-X
   152      151      154      213         9       180.000      15.16700    2     ; C-C-C-H, prebuilt X-ca-ca-X
   153      152      151      154         9       180.000       4.18400    2     ; O-C-C-C, prebuilt X-c-ca-X
   154      151      150      157         9       180.000      15.16700    2     ; C-C-C-C, prebuilt X-ca-ca-X
   154      155      156      157         9       180.000      15.16700    2     ; C-C-C-C, prebuilt X-ca-ca-X
   154      155      156      214         9       180.000      15.16700    2     ; C-C-C-H, prebuilt X-ca-ca-X
   154      155      158      159         9       180.000       4.18400    2     ; C-C-C-O, prebuilt X-c-ca-X
   154      155      158      160         9       180.000       4.18400    2     ; C-C-C-N, prebuilt X-c-ca-X
   155      156      157      215         9       180.000      15.16700    2     ; C-C-C-H, prebuilt X-ca-ca-X
   155      158      160      161         9       180.000      10.46000    2     ; C-C-N-C, prebuilt X-c-n-X
   155      158      160      216         9       180.000      10.46000    2     ; C-C-N-H, prebuilt X-c-n-X
   156      155      154      213         9       180.000      15.16700    2     ; C-C-C-H, prebuilt X-ca-ca-X
   156      155      158      159         9       180.000       4.18400    2     ; C-C-C-O, prebuilt X-c-ca-X
   156      155      158      160         9       180.000       4.18400    2     ; C-C-C-N, prebuilt X-c-ca-X
   157      156      155      158         9       180.000      15.16700    2     ; C-C-C-C, prebuilt X-ca-ca-X
   158      155      154      213         9       180.000      15.16700    2     ; C-C-C-H, prebuilt X-ca-ca-X
   158      155      156      214         9       180.000      15.16700    2     ; C-C-C-H, prebuilt X-ca-ca-X
   158      160      161      162         9       180.000       1.88280    2     ; C-N-C-C, prebuilt X-ca-n-X
   158      160      161      166         9       180.000       1.88280    2     ; C-N-C-C, prebuilt X-ca-n-X
   159      158      160      161         9       180.000      10.46000    2     ; O-C-N-C, prebuilt X-c-n-X
   159      158      160      216         9       180.000      10.46000    2     ; O-C-N-H, prebuilt hn-n-c-o
   159      158      160      216         9         0.000       8.36800    1     ; O-C-N-H, prebuilt hn-n-c-o
   160      161      162      163         9       180.000      15.16700    2     ; N-C-C-C, prebuilt X-ca-ca-X
   160      161      162      217         9       180.000      15.16700    2     ; N-C-C-H, prebuilt X-ca-ca-X
   160      161      166      165         9       180.000      15.16700    2     ; N-C-C-C, prebuilt X-ca-ca-X
   160      161      166      220         9       180.000      15.16700    2     ; N-C-C-H, prebuilt X-ca-ca-X
   161      162      163      164         9       180.000      15.16700    2     ; C-C-C-C, prebuilt X-ca-ca-X
   161      162      163      218         9       180.000      15.16700    2     ; C-C-C-H, prebuilt X-ca-ca-X
   161      166      165      164         9       180.000      15.16700    2     ; C-C-C-C, prebuilt X-ca-ca-X
   161      166      165      219         9       180.000      15.16700    2     ; C-C-C-H, prebuilt X-ca-ca-X
   162      161      160      216         9       180.000       1.88280    2     ; C-C-N-H, prebuilt X-ca-n-X
   162      161      166      165         9       180.000      15.16700    2     ; C-C-C-C, prebuilt X-ca-ca-X
   162      161      166      220         9       180.000      15.16700    2     ; C-C-C-H, prebuilt X-ca-ca-X
   162      163      164      165         9       180.000      15.16700    2     ; C-C-C-C, prebuilt X-ca-ca-X
   162      163      164      167         9       180.000      15.16700    2     ; C-C-C-O, prebuilt X-ca-ca-X
   163      162      161      166         9       180.000      15.16700    2     ; C-C-C-C, prebuilt X-ca-ca-X
   163      164      165      166         9       180.000      15.16700    2     ; C-C-C-C, prebuilt X-ca-ca-X
   163      164      165      219         9       180.000      15.16700    2     ; C-C-C-H, prebuilt X-ca-ca-X
   163      164      167      168         9       180.000       3.76560    2     ; C-C-O-C, prebuilt X-ca-os-X
   164      163      162      217         9       180.000      15.16700    2     ; C-C-C-H, prebuilt X-ca-ca-X
   164      165      166      220         9       180.000      15.16700    2     ; C-C-C-H, prebuilt X-ca-ca-X
   164      167      168      169         9       180.000       3.76560    2     ; C-O-C-C, prebuilt X-ca-os-X
   164      167      168      173         9       180.000       3.76560    2     ; C-O-C-C, prebuilt X-ca-os-X
   165      164      163      218         9       180.000      15.16700    2     ; C-C-C-H, prebuilt X-ca-ca-X
   165      164      167      168         9       180.000       3.76560    2     ; C-C-O-C, prebuilt X-ca-os-X
   166      161      160      216         9       180.000       1.88280    2     ; C-C-N-H, prebuilt X-ca-n-X
   166      161      162      217         9       180.000      15.16700    2     ; C-C-C-H, prebuilt X-ca-ca-X
   166      165      164      167         9       180.000      15.16700    2     ; C-C-C-O, prebuilt X-ca-ca-X
   167      164      163      218         9       180.000      15.16700    2     ; O-C-C-H, prebuilt X-ca-ca-X
   167      164      165      219         9       180.000      15.16700    2     ; O-C-C-H, prebuilt X-ca-ca-X
   167      168      169      170         9       180.000      15.16700    2     ; O-C-C-C, prebuilt X-ca-ca-X
   167      168      169      221         9       180.000      15.16700    2     ; O-C-C-H, prebuilt X-ca-ca-X
   167      168      173      172         9       180.000      15.16700    2     ; O-C-C-C, prebuilt X-ca-ca-X
   167      168      173      174         9       180.000      15.16700    2     ; O-C-C-O, prebuilt X-ca-ca-X
   168      169      170      171         9       180.000      15.16700    2     ; C-C-C-C, prebuilt X-ca-ca-X
   168      169      170      222         9       180.000      15.16700    2     ; C-C-C-H, prebuilt X-ca-ca-X
   168      173      172      171         9       180.000      15.16700    2     ; C-C-C-C, prebuilt X-ca-ca-X
   168      173      172      224         9       180.000      15.16700    2     ; C-C-C-H, prebuilt X-ca-ca-X
   168      173      174      175         9       180.000       3.76560    2     ; C-C-O-C, prebuilt X-ca-os-X
   169      168      173      172         9       180.000      15.16700    2     ; C-C-C-C, prebuilt X-ca-ca-X
   169      168      173      174         9       180.000      15.16700    2     ; C-C-C-O, prebuilt X-ca-ca-X
   169      170      171      172         9       180.000      15.16700    2     ; C-C-C-C, prebuilt X-ca-ca-X
   169      170      171      223         9       180.000      15.16700    2     ; C-C-C-H, prebuilt X-ca-ca-X
   170      169      168      173         9       180.000      15.16700    2     ; C-C-C-C, prebuilt X-ca-ca-X
   170      171      172      173         9       180.000      15.16700    2     ; C-C-C-C, prebuilt X-ca-ca-X
   170      171      172      224         9       180.000      15.16700    2     ; C-C-C-H, prebuilt X-ca-ca-X
   171      170      169      221         9       180.000      15.16700    2     ; C-C-C-H, prebuilt X-ca-ca-X
   171      172      173      174         9       180.000      15.16700    2     ; C-C-C-O, prebuilt X-ca-ca-X
   172      171      170      222         9       180.000      15.16700    2     ; C-C-C-H, prebuilt X-ca-ca-X
   172      173      174      175         9       180.000       3.76560    2     ; C-C-O-C, prebuilt X-ca-os-X
   173      168      169      221         9       180.000      15.16700    2     ; C-C-C-H, prebuilt X-ca-ca-X
   173      172      171      223         9       180.000      15.16700    2     ; C-C-C-H, prebuilt X-ca-ca-X
   173      174      175      176         9       180.000       3.76560    2     ; C-O-C-C, prebuilt X-ca-os-X
   173      174      175      180         9       180.000       3.76560    2     ; C-O-C-C, prebuilt X-ca-os-X
   174      173      172      224         9       180.000      15.16700    2     ; O-C-C-H, prebuilt X-ca-ca-X
   174      175      176      177         9       180.000      15.16700    2     ; O-C-C-C, prebuilt X-ca-ca-X
   174      175      176      225         9       180.000      15.16700    2     ; O-C-C-H, prebuilt X-ca-ca-X
   174      175      180      179         9       180.000      15.16700    2     ; O-C-C-C, prebuilt X-ca-ca-X
   174      175      180      228         9       180.000      15.16700    2     ; O-C-C-H, prebuilt X-ca-ca-X
   175      176      177      178         9       180.000      15.16700    2     ; C-C-C-C, prebuilt X-ca-ca-X
   175      176      177      226         9       180.000      15.16700    2     ; C-C-C-H, prebuilt X-ca-ca-X
   175      180      179      178         9       180.000      15.16700    2     ; C-C-C-C, prebuilt X-ca-ca-X
   175      180      179      227         9       180.000      15.16700    2     ; C-C-C-H, prebuilt X-ca-ca-X
   176      175      180      179         9       180.000      15.16700    2     ; C-C-C-C, prebuilt X-ca-ca-X
   176      175      180      228         9       180.000      15.16700    2     ; C-C-C-H, prebuilt X-ca-ca-X
   176      177      178      179         9       180.000      15.16700    2     ; C-C-C-C, prebuilt X-ca-ca-X
   176      177      178      181         9       180.000      15.16700    2     ; C-C-C-N, prebuilt X-ca-ca-X
   177      176      175      180         9       180.000      15.16700    2     ; C-C-C-C, prebuilt X-ca-ca-X
   177      178      179      180         9       180.000      15.16700    2     ; C-C-C-C, prebuilt X-ca-ca-X
   177      178      179      227         9       180.000      15.16700    2     ; C-C-C-H, prebuilt X-ca-ca-X
   177      178      181      182         9       180.000       1.88280    2     ; C-C-N-C, prebuilt X-ca-n-X
   177      178      181      229         9       180.000       1.88280    2     ; C-C-N-H, prebuilt X-ca-n-X
   178      177      176      225         9       180.000      15.16700    2     ; C-C-C-H, prebuilt X-ca-ca-X
   178      179      180      228         9       180.000      15.16700    2     ; C-C-C-H, prebuilt X-ca-ca-X
   178      181      182      183         9       180.000      10.46000    2     ; C-N-C-O, prebuilt X-c-n-X
   178      181      182      184         9       180.000      10.46000    2     ; C-N-C-C, prebuilt X-c-n-X
   179      178      177      226         9       180.000      15.16700    2     ; C-C-C-H, prebuilt X-ca-ca-X
   179      178      181      182         9       180.000       1.88280    2     ; C-C-N-C, prebuilt X-ca-n-X
   179      178      181      229         9       180.000       1.88280    2     ; C-C-N-H, prebuilt X-ca-n-X
   180      175      176      225         9       180.000      15.16700    2     ; C-C-C-H, prebuilt X-ca-ca-X
   180      179      178      181         9       180.000      15.16700    2     ; C-C-C-N, prebuilt X-ca-ca-X
   181      178      177      226         9       180.000      15.16700    2     ; N-C-C-H, prebuilt X-ca-ca-X
   181      178      179      227         9       180.000      15.16700    2     ; N-C-C-H, prebuilt X-ca-ca-X
   181      182      184      185         9       180.000       4.18400    2     ; N-C-C-C, prebuilt X-c-ca-X
   181      182      184      189         9       180.000       4.18400    2     ; N-C-C-C, prebuilt X-c-ca-X
   182      184      185      186         9       180.000      15.16700    2     ; C-C-C-C, prebuilt X-ca-ca-X
   182      184      185      230         9       180.000      15.16700    2     ; C-C-C-H, prebuilt X-ca-ca-X
   182      184      189      188         9       180.000      15.16700    2     ; C-C-C-C, prebuilt X-ca-ca-X
   182      184      189      233         9       180.000      15.16700    2     ; C-C-C-H, prebuilt X-ca-ca-X
   183      182      181      229         9       180.000      10.46000    2     ; O-C-N-H, prebuilt hn-n-c-o
   183      182      181      229         9         0.000       8.36800    1     ; O-C-N-H, prebuilt hn-n-c-o
   183      182      184      185         9       180.000       4.18400    2     ; O-C-C-C, prebuilt X-c-ca-X
   183      182      184      189         9       180.000       4.18400    2     ; O-C-C-C, prebuilt X-c-ca-X
   184      182      181      229         9       180.000      10.46000    2     ; C-C-N-H, prebuilt X-c-n-X
   184      185      186      187         9       180.000      15.16700    2     ; C-C-C-C, prebuilt X-ca-ca-X
   184      185      186      231         9       180.000      15.16700    2     ; C-C-C-H, prebuilt X-ca-ca-X
   184      189      188      187         9       180.000      15.16700    2     ; C-C-C-C, prebuilt X-ca-ca-X
   184      189      188      232         9       180.000      15.16700    2     ; C-C-C-H, prebuilt X-ca-ca-X
   185      184      189      188         9       180.000      15.16700    2     ; C-C-C-C, prebuilt X-ca-ca-X
   185      184      189      233         9       180.000      15.16700    2     ; C-C-C-H, prebuilt X-ca-ca-X
   185      186      187      188         9       180.000      15.16700    2     ; C-C-C-C, prebuilt X-ca-ca-X
   185      186      187      190         9       180.000      15.16700    2     ; C-C-C-N, prebuilt X-ca-ca-X
   186      185      184      189         9       180.000      15.16700    2     ; C-C-C-C, prebuilt X-ca-ca-X
   186      187      188      189         9       180.000      15.16700    2     ; C-C-C-C, prebuilt X-ca-ca-X
   186      187      188      232         9       180.000      15.16700    2     ; C-C-C-H, prebuilt X-ca-ca-X
   186      187      190      191         9       180.000       1.88280    2     ; C-C-N-C, prebuilt X-ca-n-X
   186      187      190      195         9       180.000       1.88280    2     ; C-C-N-C, prebuilt X-ca-n-X
   187      186      185      230         9       180.000      15.16700    2     ; C-C-C-H, prebuilt X-ca-ca-X
   187      188      189      233         9       180.000      15.16700    2     ; C-C-C-H, prebuilt X-ca-ca-X
   187      190      191      192         9       180.000      10.46000    2     ; C-N-C-O, prebuilt X-c-n-X
   187      190      191      193         9       180.000      10.46000    2     ; C-N-C-C, prebuilt X-c-n-X
   187      190      195      194         9       180.000      10.46000    2     ; C-N-C-C, prebuilt X-c-n-X
   187      190      195      196         9       180.000      10.46000    2     ; C-N-C-O, prebuilt X-c-n-X
   188      187      186      231         9       180.000      15.16700    2     ; C-C-C-H, prebuilt X-ca-ca-X
   188      187      190      191         9       180.000       1.88280    2     ; C-C-N-C, prebuilt X-ca-n-X
   188      187      190      195         9       180.000       1.88280    2     ; C-C-N-C, prebuilt X-ca-n-X
   189      184      185      230         9       180.000      15.16700    2     ; C-C-C-H, prebuilt X-ca-ca-X
   189      188      187      190         9       180.000      15.16700    2     ; C-C-C-N, prebuilt X-ca-ca-X
   190      187      186      231         9       180.000      15.16700    2     ; N-C-C-H, prebuilt X-ca-ca-X
   190      187      188      232         9       180.000      15.16700    2     ; N-C-C-H, prebuilt X-ca-ca-X
   190      191      193      194         9       180.000       4.18400    2     ; N-C-C-C, prebuilt X-c-ca-X
   190      191      193      200         9       180.000       4.18400    2     ; N-C-C-C, prebuilt X-c-ca-X
   190      195      194      193         9       180.000       4.18400    2     ; N-C-C-C, prebuilt X-c-ca-X
   190      195      194      197         9       180.000       4.18400    2     ; N-C-C-C, prebuilt X-c-ca-X
   191      190      195      194         9       180.000      10.46000    2     ; C-N-C-C, prebuilt X-c-n-X
   191      190      195      196         9       180.000      10.46000    2     ; C-N-C-O, prebuilt X-c-n-X
   191      193      194      195         9       180.000      15.16700    2     ; C-C-C-C, prebuilt X-ca-ca-X
   191      193      194      197         9       180.000      15.16700    2     ; C-C-C-C, prebuilt X-ca-ca-X
   191      193      200      199         9       180.000      15.16700    2     ; C-C-C-C, prebuilt X-ca-ca-X
   191      193      200      236         9       180.000      15.16700    2     ; C-C-C-H, prebuilt X-ca-ca-X
   192      191      190      195         9       180.000      10.46000    2     ; O-C-N-C, prebuilt X-c-n-X
   192      191      193      194         9       180.000       4.18400    2     ; O-C-C-C, prebuilt X-c-ca-X
   192      191      193      200         9       180.000       4.18400    2     ; O-C-C-C, prebuilt X-c-ca-X
   193      191      190      195         9       180.000      10.46000    2     ; C-C-N-C, prebuilt X-c-n-X
   193      194      195      196         9       180.000       4.18400    2     ; C-C-C-O, prebuilt X-c-ca-X
   193      194      197      198         9       180.000      15.16700    2     ; C-C-C-C, prebuilt X-ca-ca-X
   193      194      197      234         9       180.000      15.16700    2     ; C-C-C-H, prebuilt X-ca-ca-X
   193      200      199      198         9       180.000      15.16700    2     ; C-C-C-C, prebuilt X-ca-ca-X
   193      200      199      235         9       180.000      15.16700    2     ; C-C-C-H, prebuilt X-ca-ca-X
   194      193      200      199         9       180.000      15.16700    2     ; C-C-C-C, prebuilt X-ca-ca-X
   194      193      200      236         9       180.000      15.16700    2     ; C-C-C-H, prebuilt X-ca-ca-X
   194      197      198      199         9       180.000      15.16700    2     ; C-C-C-C, prebuilt X-ca-cp-X
   194      197      198      240         9       180.000      15.16700    2     ; C-C-C-C, prebuilt X-ca-cp-X
   195      194      193      200         9       180.000      15.16700    2     ; C-C-C-C, prebuilt X-ca-ca-X
   195      194      197      198         9       180.000      15.16700    2     ; C-C-C-C, prebuilt X-ca-ca-X
   195      194      197      234         9       180.000      15.16700    2     ; C-C-C-H, prebuilt X-ca-ca-X
   196      195      194      197         9       180.000       4.18400    2     ; O-C-C-C, prebuilt X-c-ca-X
   197      194      193      200         9       180.000      15.16700    2     ; C-C-C-C, prebuilt X-ca-ca-X
   197      198      199      200         9       180.000      15.16700    2     ; C-C-C-C, prebuilt X-ca-cp-X
   197      198      199      235         9       180.000      15.16700    2     ; C-C-C-H, prebuilt X-ca-cp-X
   197      198      240      241         9       180.000       4.18400    2     ; C-C-C-C, prebuilt X-cp-cp-X
   197      198      240      245         9       180.000       4.18400    2     ; C-C-C-C, prebuilt X-cp-cp-X
   198      199      200      236         9       180.000      15.16700    2     ; C-C-C-H, prebuilt X-ca-ca-X
   198      240      241      242         9       180.000      15.16700    2     ; C-C-C-C, prebuilt X-ca-cp-X
   198      240      241      321         9       180.000      15.16700    2     ; C-C-C-H, prebuilt X-ca-cp-X
   198      240      245      244         9       180.000      15.16700    2     ; C-C-C-C, prebuilt X-ca-cp-X
   198      240      245      323         9       180.000      15.16700    2     ; C-C-C-H, prebuilt X-ca-cp-X
   199      198      197      234         9       180.000      15.16700    2     ; C-C-C-H, prebuilt X-ca-cp-X
   199      198      240      241         9       180.000       4.18400    2     ; C-C-C-C, prebuilt X-cp-cp-X
   199      198      240      245         9       180.000       4.18400    2     ; C-C-C-C, prebuilt X-cp-cp-X
   200      199      198      240         9       180.000      15.16700    2     ; C-C-C-C, prebuilt X-ca-cp-X
   201      144      143      211         9       180.000      15.16700    2     ; C-C-C-H, prebuilt X-ca-ca-X
   201      144      145      212         9       180.000      15.16700    2     ; C-C-C-H, prebuilt X-ca-ca-X
   202      122      123      203         9       180.000      15.16700    2     ; H-C-C-H, prebuilt X-ca-ca-X
   205      133      134      206         9       180.000      15.16700    2     ; H-C-C-H, prebuilt X-ca-ca-X
   207      136      137      208         9       180.000      15.16700    2     ; H-C-C-H, prebuilt X-ca-ca-X
   210      142      143      211         9       180.000      15.16700    2     ; H-C-C-H, prebuilt X-ca-ca-X
   214      156      157      215         9       180.000      15.16700    2     ; H-C-C-H, prebuilt X-ca-ca-X
   217      162      163      218         9       180.000      15.16700    2     ; H-C-C-H, prebuilt X-ca-ca-X
   219      165      166      220         9       180.000      15.16700    2     ; H-C-C-H, prebuilt X-ca-ca-X
   221      169      170      222         9       180.000      15.16700    2     ; H-C-C-H, prebuilt X-ca-ca-X
   222      170      171      223         9       180.000      15.16700    2     ; H-C-C-H, prebuilt X-ca-ca-X
   223      171      172      224         9       180.000      15.16700    2     ; H-C-C-H, prebuilt X-ca-ca-X
   225      176      177      226         9       180.000      15.16700    2     ; H-C-C-H, prebuilt X-ca-ca-X
   227      179      180      228         9       180.000      15.16700    2     ; H-C-C-H, prebuilt X-ca-ca-X
   230      185      186      231         9       180.000      15.16700    2     ; H-C-C-H, prebuilt X-ca-ca-X
   232      188      189      233         9       180.000      15.16700    2     ; H-C-C-H, prebuilt X-ca-ca-X
   234      197      198      240         9       180.000      15.16700    2     ; H-C-C-C, prebuilt X-ca-cp-X
   235      199      198      240         9       180.000      15.16700    2     ; H-C-C-C, prebuilt X-ca-cp-X
   235      199      200      236         9       180.000      15.16700    2     ; H-C-C-H, prebuilt X-ca-ca-X
   240      241      242      243         9       180.000      15.16700    2     ; C-C-C-C, prebuilt X-ca-ca-X
   240      241      242      322         9       180.000      15.16700    2     ; C-C-C-H, prebuilt X-ca-ca-X
   240      245      244      243         9       180.000      15.16700    2     ; C-C-C-C, prebuilt X-ca-ca-X
   240      245      244      246         9       180.000      15.16700    2     ; C-C-C-C, prebuilt X-ca-ca-X
   241      240      245      244         9       180.000      15.16700    2     ; C-C-C-C, prebuilt X-ca-cp-X
   241      240      245      323         9       180.000      15.16700    2     ; C-C-C-H, prebuilt X-ca-cp-X
   241      242      243      244         9       180.000      15.16700    2     ; C-C-C-C, prebuilt X-ca-ca-X
   241      242      243      249         9       180.000      15.16700    2     ; C-C-C-C, prebuilt X-ca-ca-X
   242      241      240      245         9       180.000      15.16700    2     ; C-C-C-C, prebuilt X-ca-cp-X
   242      243      244      245         9       180.000      15.16700    2     ; C-C-C-C, prebuilt X-ca-ca-X
   242      243      244      246         9       180.000      15.16700    2     ; C-C-C-C, prebuilt X-ca-ca-X
   242      243      249      248         9       180.000       4.18400    2     ; C-C-C-N, prebuilt X-c-ca-X
   242      243      249      250         9       180.000       4.18400    2     ; C-C-C-O, prebuilt X-c-ca-X
   243      242      241      321         9       180.000      15.16700    2     ; C-C-C-H, prebuilt X-ca-ca-X
   243      244      245      323         9       180.000      15.16700    2     ; C-C-C-H, prebuilt X-ca-ca-X
   243      244      246      247         9       180.000       4.18400    2     ; C-C-C-O, prebuilt X-c-ca-X
   243      244      246      248         9       180.000       4.18400    2     ; C-C-C-N, prebuilt X-c-ca-X
   243      249      248      246         9       180.000      10.46000    2     ; C-C-N-C, prebuilt X-c-n-X
   243      249      248      251         9       180.000      10.46000    2     ; C-C-N-C, prebuilt X-c-n-X
   244      243      242      322         9       180.000      15.16700    2     ; C-C-C-H, prebuilt X-ca-ca-X
   244      243      249      248         9       180.000       4.18400    2     ; C-C-C-N, prebuilt X-c-ca-X
   244      243      249      250         9       180.000       4.18400    2     ; C-C-C-O, prebuilt X-c-ca-X
   244      246      248      249         9       180.000      10.46000    2     ; C-C-N-C, prebuilt X-c-n-X
   244      246      248      251         9       180.000      10.46000    2     ; C-C-N-C, prebuilt X-c-n-X
   245      240      241      321         9       180.000      15.16700    2     ; C-C-C-H, prebuilt X-ca-cp-X
   245      244      243      249         9       180.000      15.16700    2     ; C-C-C-C, prebuilt X-ca-ca-X
   245      244      246      247         9       180.000       4.18400    2     ; C-C-C-O, prebuilt X-c-ca-X
   245      244      246      248         9       180.000       4.18400    2     ; C-C-C-N, prebuilt X-c-ca-X
   246      244      243      249         9       180.000      15.16700    2     ; C-C-C-C, prebuilt X-ca-ca-X
   246      244      245      323         9       180.000      15.16700    2     ; C-C-C-H, prebuilt X-ca-ca-X
   246      248      249      250         9       180.000      10.46000    2     ; C-N-C-O, prebuilt X-c-n-X
   246      248      251      252         9       180.000       1.88280    2     ; C-N-C-C, prebuilt X-ca-n-X
   246      248      251      256         9       180.000       1.88280    2     ; C-N-C-C, prebuilt X-ca-n-X
   247      246      248      249         9       180.000      10.46000    2     ; O-C-N-C, prebuilt X-c-n-X
   247      246      248      251         9       180.000      10.46000    2     ; O-C-N-C, prebuilt X-c-n-X
   248      251      252      253         9       180.000      15.16700    2     ; N-C-C-C, prebuilt X-ca-ca-X
   248      251      252      324         9       180.000      15.16700    2     ; N-C-C-H, prebuilt X-ca-ca-X
   248      251      256      255         9       180.000      15.16700    2     ; N-C-C-C, prebuilt X-ca-ca-X
   248      251      256      327         9       180.000      15.16700    2     ; N-C-C-H, prebuilt X-ca-ca-X
   249      243      242      322         9       180.000      15.16700    2     ; C-C-C-H, prebuilt X-ca-ca-X
   249      248      251      252         9       180.000       1.88280    2     ; C-N-C-C, prebuilt X-ca-n-X
   249      248      251      256         9       180.000       1.88280    2     ; C-N-C-C, prebuilt X-ca-n-X
   250      249      248      251         9       180.000      10.46000    2     ; O-C-N-C, prebuilt X-c-n-X
   251      252      253      254         9       180.000      15.16700    2     ; C-C-C-C, prebuilt X-ca-ca-X
   251      252      253      325         9       180.000      15.16700    2     ; C-C-C-H, prebuilt X-ca-ca-X
   251      256      255      254         9       180.000      15.16700    2     ; C-C-C-C, prebuilt X-ca-ca-X
   251      256      255      326         9       180.000      15.16700    2     ; C-C-C-H, prebuilt X-ca-ca-X
   252      251      256      255         9       180.000      15.16700    2     ; C-C-C-C, prebuilt X-ca-ca-X
   252      251      256      327         9       180.000      15.16700    2     ; C-C-C-H, prebuilt X-ca-ca-X
   252      253      254      255         9       180.000      15.16700    2     ; C-C-C-C, prebuilt X-ca-ca-X
   252      253      254      257         9       180.000      15.16700    2     ; C-C-C-N, prebuilt X-ca-ca-X
   253      252      251      256         9       180.000      15.16700    2     ; C-C-C-C, prebuilt X-ca-ca-X
   253      254      255      256         9       180.000      15.16700    2     ; C-C-C-C, prebuilt X-ca-ca-X
   253      254      255      326         9       180.000      15.16700    2     ; C-C-C-H, prebuilt X-ca-ca-X
   253      254      257      258         9       180.000       1.88280    2     ; C-C-N-C, prebuilt X-ca-n-X
   253      254      257      328         9       180.000       1.88280    2     ; C-C-N-H, prebuilt X-ca-n-X
   254      253      252      324         9       180.000      15.16700    2     ; C-C-C-H, prebuilt X-ca-ca-X
   254      255      256      327         9       180.000      15.16700    2     ; C-C-C-H, prebuilt X-ca-ca-X
   254      257      258      259         9       180.000      10.46000    2     ; C-N-C-O, prebuilt X-c-n-X
   254      257      258      260         9       180.000      10.46000    2     ; C-N-C-C, prebuilt X-c-n-X
   255      254      253      325         9       180.000      15.16700    2     ; C-C-C-H, prebuilt X-ca-ca-X
   255      254      257      258         9       180.000       1.88280    2     ; C-C-N-C, prebuilt X-ca-n-X
   255      254      257      328         9       180.000       1.88280    2     ; C-C-N-H, prebuilt X-ca-n-X
   256      251      252      324         9       180.000      15.16700    2     ; C-C-C-H, prebuilt X-ca-ca-X
   256      255      254      257         9       180.000      15.16700    2     ; C-C-C-N, prebuilt X-ca-ca-X
   257      254      253      325         9       180.000      15.16700    2     ; N-C-C-H, prebuilt X-ca-ca-X
   257      254      255      326         9       180.000      15.16700    2     ; N-C-C-H, prebuilt X-ca-ca-X
   257      258      260      261         9       180.000       4.18400    2     ; N-C-C-C, prebuilt X-c-ca-X
   257      258      260      265         9       180.000       4.18400    2     ; N-C-C-C, prebuilt X-c-ca-X
   258      260      261      262         9       180.000      15.16700    2     ; C-C-C-C, prebuilt X-ca-ca-X
   258      260      261      329         9       180.000      15.16700    2     ; C-C-C-H, prebuilt X-ca-ca-X
   258      260      265      264         9       180.000      15.16700    2     ; C-C-C-C, prebuilt X-ca-ca-X
   258      260      265      266         9       180.000      15.16700    2     ; C-C-C-N, prebuilt X-ca-ca-X
   259      258      257      328         9       180.000      10.46000    2     ; O-C-N-H, prebuilt hn-n-c-o
   259      258      257      328         9         0.000       8.36800    1     ; O-C-N-H, prebuilt hn-n-c-o
   259      258      260      261         9       180.000       4.18400    2     ; O-C-C-C, prebuilt X-c-ca-X
   259      258      260      265         9       180.000       4.18400    2     ; O-C-C-C, prebuilt X-c-ca-X
   260      258      257      328         9       180.000      10.46000    2     ; C-C-N-H, prebuilt X-c-n-X
   260      261      262      263         9       180.000      15.16700    2     ; C-C-C-C, prebuilt X-ca-ca-X
   260      261      262      330         9       180.000      15.16700    2     ; C-C-C-H, prebuilt X-ca-ca-X
   260      265      264      263         9       180.000      15.16700    2     ; C-C-C-C, prebuilt X-ca-ca-X
   260      265      264      331         9       180.000      15.16700    2     ; C-C-C-H, prebuilt X-ca-ca-X
   260      265      266      267         9       180.000       1.88280    2     ; C-C-N-C, prebuilt X-ca-n-X
   260      265      266      271         9       180.000       1.88280    2     ; C-C-N-C, prebuilt X-ca-n-X
   261      260      265      264         9       180.000      15.16700    2     ; C-C-C-C, prebuilt X-ca-ca-X
   261      260      265      266         9       180.000      15.16700    2     ; C-C-C-N, prebuilt X-ca-ca-X
   261      262      263      264         9       180.000      15.16700    2     ; C-C-C-C, prebuilt X-ca-ca-X
   261      262      263      320         9       180.000      15.16700    2     ; C-C-C-C, prebuilt X-ca-ca-X
   262      261      260      265         9       180.000      15.16700    2     ; C-C-C-C, prebuilt X-ca-ca-X
   262      263      264      265         9       180.000      15.16700    2     ; C-C-C-C, prebuilt X-ca-ca-X
   262      263      264      331         9       180.000      15.16700    2     ; C-C-C-H, prebuilt X-ca-ca-X
   262      263      320      356         9         0.000       0.00000    2     ; C-C-C-H, prebuilt X-c3-ca-X
   262      263      320      357         9         0.000       0.00000    2     ; C-C-C-H, prebuilt X-c3-ca-X
   262      263      320      358         9         0.000       0.00000    2     ; C-C-C-H, prebuilt X-c3-ca-X
   263      262      261      329         9       180.000      15.16700    2     ; C-C-C-H, prebuilt X-ca-ca-X
   263      264      265      266         9       180.000      15.16700    2     ; C-C-C-N, prebuilt X-ca-ca-X
   264      263      262      330         9       180.000      15.16700    2     ; C-C-C-H, prebuilt X-ca-ca-X
   264      263      320      356         9         0.000       0.00000    2     ; C-C-C-H, prebuilt X-c3-ca-X
   264      263      320      357         9         0.000       0.00000    2     ; C-C-C-H, prebuilt X-c3-ca-X
   264      263      320      358         9         0.000       0.00000    2     ; C-C-C-H, prebuilt X-c3-ca-X
   264      265      266      267         9       180.000       1.88280    2     ; C-C-N-C, prebuilt X-ca-n-X
   264      265      266      271         9       180.000       1.88280    2     ; C-C-N-C, prebuilt X-ca-n-X
   265      260      261      329         9       180.000      15.16700    2     ; C-C-C-H, prebuilt X-ca-ca-X
   265      264      263      320         9       180.000      15.16700    2     ; C-C-C-C, prebuilt X-ca-ca-X
   265      266      267      268         9       180.000      10.46000    2     ; C-N-C-O, prebuilt X-c-n-X
   265      266      267      269         9       180.000      10.46000    2     ; C-N-C-C, prebuilt X-c-n-X
   265      266      271      270         9       180.000      10.46000    2     ; C-N-C-C, prebuilt X-c-n-X
   265      266      271      272         9       180.000      10.46000    2     ; C-N-C-O, prebuilt X-c-n-X
   266      265      264      331         9       180.000      15.16700    2     ; N-C-C-H, prebuilt X-ca-ca-X
   266      267      269      270         9       180.000       4.18400    2     ; N-C-C-C, prebuilt X-c-ca-X
   266      267      269      276         9       180.000       4.18400    2     ; N-C-C-C, prebuilt X-c-ca-X
   266      271      270      269         9       180.000       4.18400    2     ; N-C-C-C, prebuilt X-c-ca-X
   266      271      270      273         9       180.000       4.18400    2     ; N-C-C-C, prebuilt X-c-ca-X
   267      266      271      270         9       180.000      10.46000    2     ; C-N-C-C, prebuilt X-c-n-X
   267      266      271      272         9       180.000      10.46000    2     ; C-N-C-O, prebuilt X-c-n-X
   267      269      270      271         9       180.000      15.16700    2     ; C-C-C-C, prebuilt X-ca-ca-X
   267      269      270      273         9       180.000      15.16700    2     ; C-C-C-C, prebuilt X-ca-ca-X
   267      269      276      275         9       180.000      15.16700    2     ; C-C-C-C, prebuilt X-ca-ca-X
   267      269      276      334         9       180.000      15.16700    2     ; C-C-C-H, prebuilt X-ca-ca-X
   268      267      266      271         9       180.000      10.46000    2     ; O-C-N-C, prebuilt X-c-n-X
   268      267      269      270         9       180.000       4.18400    2     ; O-C-C-C, prebuilt X-c-ca-X
   268      267      269      276         9       180.000       4.18400    2     ; O-C-C-C, prebuilt X-c-ca-X
   269      267      266      271         9       180.000      10.46000    2     ; C-C-N-C, prebuilt X-c-n-X
   269      270      271      272         9       180.000       4.18400    2     ; C-C-C-O, prebuilt X-c-ca-X
   269      270      273      274         9       180.000      15.16700    2     ; C-C-C-C, prebuilt X-ca-ca-X
   269      270      273      332         9       180.000      15.16700    2     ; C-C-C-H, prebuilt X-ca-ca-X
   269      276      275      274         9       180.000      15.16700    2     ; C-C-C-C, prebuilt X-ca-ca-X
   269      276      275      333         9       180.000      15.16700    2     ; C-C-C-H, prebuilt X-ca-ca-X
   270      269      276      275         9       180.000      15.16700    2     ; C-C-C-C, prebuilt X-ca-ca-X
   270      269      276      334         9       180.000      15.16700    2     ; C-C-C-H, prebuilt X-ca-ca-X
   270      273      274      275         9       180.000      15.16700    2     ; C-C-C-C, prebuilt X-ca-ca-X
   270      273      274      277         9       180.000      15.16700    2     ; C-C-C-C, prebuilt X-ca-ca-X
   271      270      269      276         9       180.000      15.16700    2     ; C-C-C-C, prebuilt X-ca-ca-X
   271      270      273      274         9       180.000      15.16700    2     ; C-C-C-C, prebuilt X-ca-ca-X
   271      270      273      332         9       180.000      15.16700    2     ; C-C-C-H, prebuilt X-ca-ca-X
   272      271      270      273         9       180.000       4.18400    2     ; O-C-C-C, prebuilt X-c-ca-X
   273      270      269      276         9       180.000      15.16700    2     ; C-C-C-C, prebuilt X-ca-ca-X
   273      274      275      276         9       180.000      15.16700    2     ; C-C-C-C, prebuilt X-ca-ca-X
   273      274      275      333         9       180.000      15.16700    2     ; C-C-C-H, prebuilt X-ca-ca-X
   273      274      277      278         9       180.000       4.18400    2     ; C-C-C-O, prebuilt X-c-ca-X
   273      274      277      279         9       180.000       4.18400    2     ; C-C-C-N, prebuilt X-c-ca-X
   274      275      276      334         9       180.000      15.16700    2     ; C-C-C-H, prebuilt X-ca-ca-X
   274      277      279      280         9       180.000      10.46000    2     ; C-C-N-C, prebuilt X-c-n-X
   274      277      279      335         9       180.000      10.46000    2     ; C-C-N-H, prebuilt X-c-n-X
   275      274      273      332         9       180.000      15.16700    2     ; C-C-C-H, prebuilt X-ca-ca-X
   275      274      277      278         9       180.000       4.18400    2     ; C-C-C-O, prebuilt X-c-ca-X
   275      274      277      279         9       180.000       4.18400    2     ; C-C-C-N, prebuilt X-c-ca-X
   276      275      274      277         9       180.000      15.16700    2     ; C-C-C-C, prebuilt X-ca-ca-X
   277      274      273      332         9       180.000      15.16700    2     ; C-C-C-H, prebuilt X-ca-ca-X
   277      274      275      333         9       180.000      15.16700    2     ; C-C-C-H, prebuilt X-ca-ca-X
   277      279      280      281         9       180.000       1.88280    2     ; C-N-C-C, prebuilt X-ca-n-X
   277      279      280      285         9       180.000       1.88280    2     ; C-N-C-C, prebuilt X-ca-n-X
   278      277      279      280         9       180.000      10.46000    2     ; O-C-N-C, prebuilt X-c-n-X
   278      277      279      335         9       180.000      10.46000    2     ; O-C-N-H, prebuilt hn-n-c-o
   278      277      279      335         9         0.000       8.36800    1     ; O-C-N-H, prebuilt hn-n-c-o
   279      280      281      282         9       180.000      15.16700    2     ; N-C-C-C, prebuilt X-ca-ca-X
   279      280      281      336         9       180.000      15.16700    2     ; N-C-C-H, prebuilt X-ca-ca-X
   279      280      285      284         9       180.000      15.16700    2     ; N-C-C-C, prebuilt X-ca-ca-X
   279      280      285      339         9       180.000      15.16700    2     ; N-C-C-H, prebuilt X-ca-ca-X
   280      281      282      283         9       180.000      15.16700    2     ; C-C-C-C, prebuilt X-ca-ca-X
   280      281      282      337         9       180.000      15.16700    2     ; C-C-C-H, prebuilt X-ca-ca-X
   280      285      284      283         9       180.000      15.16700    2     ; C-C-C-C, prebuilt X-ca-ca-X
   280      285      284      338         9       180.000      15.16700    2     ; C-C-C-H, prebuilt X-ca-ca-X
   281      280      279      335         9       180.000       1.88280    2     ; C-C-N-H, prebuilt X-ca-n-X
   281      280      285      284         9       180.000      15.16700    2     ; C-C-C-C, prebuilt X-ca-ca-X
   281      280      285      339         9       180.000      15.16700    2     ; C-C-C-H, prebuilt X-ca-ca-X
   281      282      283      284         9       180.000      15.16700    2     ; C-C-C-C, prebuilt X-ca-ca-X
   281      282      283      286         9       180.000      15.16700    2     ; C-C-C-O, prebuilt X-ca-ca-X
   282      281      280      285         9       180.000      15.16700    2     ; C-C-C-C, prebuilt X-ca-ca-X
   282      283      284      285         9       180.000      15.16700    2     ; C-C-C-C, prebuilt X-ca-ca-X
   282      283      284      338         9       180.000      15.16700    2     ; C-C-C-H, prebuilt X-ca-ca-X
   282      283      286      287         9       180.000       3.76560    2     ; C-C-O-C, prebuilt X-ca-os-X
   283      282      281      336         9       180.000      15.16700    2     ; C-C-C-H, prebuilt X-ca-ca-X
   283      284      285      339         9       180.000      15.16700    2     ; C-C-C-H, prebuilt X-ca-ca-X
   283      286      287      288         9       180.000       3.76560    2     ; C-O-C-C, prebuilt X-ca-os-X
   283      286      287      292         9       180.000       3.76560    2     ; C-O-C-C, prebuilt X-ca-os-X
   284      283      282      337         9       180.000      15.16700    2     ; C-C-C-H, prebuilt X-ca-ca-X
   284      283      286      287         9       180.000       3.76560    2     ; C-C-O-C, prebuilt X-ca-os-X
   285      280      279      335         9       180.000       1.88280    2     ; C-C-N-H, prebuilt X-ca-n-X
   285      280      281      336         9       180.000      15.16700    2     ; C-C-C-H, prebuilt X-ca-ca-X
   285      284      283      286         9       180.000      15.16700    2     ; C-C-C-O, prebuilt X-ca-ca-X
   286      283      282      337         9       180.000      15.16700    2     ; O-C-C-H, prebuilt X-ca-ca-X
   286      283      284      338         9       180.000      15.16700    2     ; O-C-C-H, prebuilt X-ca-ca-X
   286      287      288      289         9       180.000      15.16700    2     ; O-C-C-C, prebuilt X-ca-ca-X
   286      287      288      340         9       180.000      15.16700    2     ; O-C-C-H, prebuilt X-ca-ca-X
   286      287      292      291         9       180.000      15.16700    2     ; O-C-C-C, prebuilt X-ca-ca-X
   286      287      292      293         9       180.000      15.16700    2     ; O-C-C-O, prebuilt X-ca-ca-X
   287      288      289      290         9       180.000      15.16700    2     ; C-C-C-C, prebuilt X-ca-ca-X
   287      288      289      341         9       180.000      15.16700    2     ; C-C-C-H, prebuilt X-ca-ca-X
   287      292      291      290         9       180.000      15.16700    2     ; C-C-C-C, prebuilt X-ca-ca-X
   287      292      291      343         9       180.000      15.16700    2     ; C-C-C-H, prebuilt X-ca-ca-X
   287      292      293      294         9       180.000       3.76560    2     ; C-C-O-C, prebuilt X-ca-os-X
   288      287      292      291         9       180.000      15.16700    2     ; C-C-C-C, prebuilt X-ca-ca-X
   288      287      292      293         9       180.000      15.16700    2     ; C-C-C-O, prebuilt X-ca-ca-X
   288      289      290      291         9       180.000      15.16700    2     ; C-C-C-C, prebuilt X-ca-ca-X
   288      289      290      342         9       180.000      15.16700    2     ; C-C-C-H, prebuilt X-ca-ca-X
   289      288      287      292         9       180.000      15.16700    2     ; C-C-C-C, prebuilt X-ca-ca-X
   289      290      291      292         9       180.000      15.16700    2     ; C-C-C-C, prebuilt X-ca-ca-X
   289      290      291      343         9       180.000      15.16700    2     ; C-C-C-H, prebuilt X-ca-ca-X
   290      289      288      340         9       180.000      15.16700    2     ; C-C-C-H, prebuilt X-ca-ca-X
   290      291      292      293         9       180.000      15.16700    2     ; C-C-C-O, prebuilt X-ca-ca-X
   291      290      289      341         9       180.000      15.16700    2     ; C-C-C-H, prebuilt X-ca-ca-X
   291      292      293      294         9       180.000       3.76560    2     ; C-C-O-C, prebuilt X-ca-os-X
   292      287      288      340         9       180.000      15.16700    2     ; C-C-C-H, prebuilt X-ca-ca-X
   292      291      290      342         9       180.000      15.16700    2     ; C-C-C-H, prebuilt X-ca-ca-X
   292      293      294      295         9       180.000       3.76560    2     ; C-O-C-C, prebuilt X-ca-os-X
   292      293      294      299         9       180.000       3.76560    2     ; C-O-C-C, prebuilt X-ca-os-X
   293      292      291      343         9       180.000      15.16700    2     ; O-C-C-H, prebuilt X-ca-ca-X
   293      294      295      296         9       180.000      15.16700    2     ; O-C-C-C, prebuilt X-ca-ca-X
   293      294      295      344         9       180.000      15.16700    2     ; O-C-C-H, prebuilt X-ca-ca-X
   293      294      299      298         9       180.000      15.16700    2     ; O-C-C-C, prebuilt X-ca-ca-X
   293      294      299      347         9       180.000      15.16700    2     ; O-C-C-H, prebuilt X-ca-ca-X
   294      295      296      297         9       180.000      15.16700    2     ; C-C-C-C, prebuilt X-ca-ca-X
   294      295      296      345         9       180.000      15.16700    2     ; C-C-C-H, prebuilt X-ca-ca-X
   294      299      298      297         9       180.000      15.16700    2     ; C-C-C-C, prebuilt X-ca-ca-X
   294      299      298      346         9       180.000      15.16700    2     ; C-C-C-H, prebuilt X-ca-ca-X
   295      294      299      298         9       180.000      15.16700    2     ; C-C-C-C, prebuilt X-ca-ca-X
   295      294      299      347         9       180.000      15.16700    2     ; C-C-C-H, prebuilt X-ca-ca-X
   295      296      297      298         9       180.000      15.16700    2     ; C-C-C-C, prebuilt X-ca-ca-X
   295      296      297      300         9       180.000      15.16700    2     ; C-C-C-N, prebuilt X-ca-ca-X
   296      295      294      299         9       180.000      15.16700    2     ; C-C-C-C, prebuilt X-ca-ca-X
   296      297      298      299         9       180.000      15.16700    2     ; C-C-C-C, prebuilt X-ca-ca-X
   296      297      298      346         9       180.000      15.16700    2     ; C-C-C-H, prebuilt X-ca-ca-X
   296      297      300      301         9       180.000       1.88280    2     ; C-C-N-C, prebuilt X-ca-n-X
   296      297      300      348         9       180.000       1.88280    2     ; C-C-N-H, prebuilt X-ca-n-X
   297      296      295      344         9       180.000      15.16700    2     ; C-C-C-H, prebuilt X-ca-ca-X
   297      298      299      347         9       180.000      15.16700    2     ; C-C-C-H, prebuilt X-ca-ca-X
   297      300      301      302         9       180.000      10.46000    2     ; C-N-C-O, prebuilt X-c-n-X
   297      300      301      303         9       180.000      10.46000    2     ; C-N-C-C, prebuilt X-c-n-X
   298      297      296      345         9       180.000      15.16700    2     ; C-C-C-H, prebuilt X-ca-ca-X
   298      297      300      301         9       180.000       1.88280    2     ; C-C-N-C, prebuilt X-ca-n-X
   298      297      300      348         9       180.000       1.88280    2     ; C-C-N-H, prebuilt X-ca-n-X
   299      294      295      344         9       180.000      15.16700    2     ; C-C-C-H, prebuilt X-ca-ca-X
   299      298      297      300         9       180.000      15.16700    2     ; C-C-C-N, prebuilt X-ca-ca-X
   300      297      296      345         9       180.000      15.16700    2     ; N-C-C-H, prebuilt X-ca-ca-X
   300      297      298      346         9       180.000      15.16700    2     ; N-C-C-H, prebuilt X-ca-ca-X
   300      301      303      304         9       180.000       4.18400    2     ; N-C-C-C, prebuilt X-c-ca-X
   300      301      303      308         9       180.000       4.18400    2     ; N-C-C-C, prebuilt X-c-ca-X
   301      303      304      305         9       180.000      15.16700    2     ; C-C-C-C, prebuilt X-ca-ca-X
   301      303      304      349         9       180.000      15.16700    2     ; C-C-C-H, prebuilt X-ca-ca-X
   301      303      308      307         9       180.000      15.16700    2     ; C-C-C-C, prebuilt X-ca-ca-X
   301      303      308      352         9       180.000      15.16700    2     ; C-C-C-H, prebuilt X-ca-ca-X
   302      301      300      348         9       180.000      10.46000    2     ; O-C-N-H, prebuilt hn-n-c-o
   302      301      300      348         9         0.000       8.36800    1     ; O-C-N-H, prebuilt hn-n-c-o
   302      301      303      304         9       180.000       4.18400    2     ; O-C-C-C, prebuilt X-c-ca-X
   302      301      303      308         9       180.000       4.18400    2     ; O-C-C-C, prebuilt X-c-ca-X
   303      301      300      348         9       180.000      10.46000    2     ; C-C-N-H, prebuilt X-c-n-X
   303      304      305      306         9       180.000      15.16700    2     ; C-C-C-C, prebuilt X-ca-ca-X
   303      304      305      350         9       180.000      15.16700    2     ; C-C-C-H, prebuilt X-ca-ca-X
   303      308      307      306         9       180.000      15.16700    2     ; C-C-C-C, prebuilt X-ca-ca-X
   303      308      307      351         9       180.000      15.16700    2     ; C-C-C-H, prebuilt X-ca-ca-X
   304      303      308      307         9       180.000      15.16700    2     ; C-C-C-C, prebuilt X-ca-ca-X
   304      303      308      352         9       180.000      15.16700    2     ; C-C-C-H, prebuilt X-ca-ca-X
   304      305      306      307         9       180.000      15.16700    2     ; C-C-C-C, prebuilt X-ca-ca-X
   304      305      306      309         9       180.000      15.16700    2     ; C-C-C-N, prebuilt X-ca-ca-X
   305      304      303      308         9       180.000      15.16700    2     ; C-C-C-C, prebuilt X-ca-ca-X
   305      306      307      308         9       180.000      15.16700    2     ; C-C-C-C, prebuilt X-ca-ca-X
   305      306      307      351         9       180.000      15.16700    2     ; C-C-C-H, prebuilt X-ca-ca-X
   305      306      309      310         9       180.000       1.88280    2     ; C-C-N-C, prebuilt X-ca-n-X
   305      306      309      314         9       180.000       1.88280    2     ; C-C-N-C, prebuilt X-ca-n-X
   306      305      304      349         9       180.000      15.16700    2     ; C-C-C-H, prebuilt X-ca-ca-X
   306      307      308      352         9       180.000      15.16700    2     ; C-C-C-H, prebuilt X-ca-ca-X
   306      309      310      311         9       180.000      10.46000    2     ; C-N-C-O, prebuilt X-c-n-X
   306      309      310      312         9       180.000      10.46000    2     ; C-N-C-C, prebuilt X-c-n-X
   306      309      314      313         9       180.000      10.46000    2     ; C-N-C-C, prebuilt X-c-n-X
   306      309      314      315         9       180.000      10.46000    2     ; C-N-C-O, prebuilt X-c-n-X
   307      306      305      350         9       180.000      15.16700    2     ; C-C-C-H, prebuilt X-ca-ca-X
   307      306      309      310         9       180.000       1.88280    2     ; C-C-N-C, prebuilt X-ca-n-X
   307      306      309      314         9       180.000       1.88280    2     ; C-C-N-C, prebuilt X-ca-n-X
   308      303      304      349         9       180.000      15.16700    2     ; C-C-C-H, prebuilt X-ca-ca-X
   308      307      306      309         9       180.000      15.16700    2     ; C-C-C-N, prebuilt X-ca-ca-X
   309      306      305      350         9       180.000      15.16700    2     ; N-C-C-H, prebuilt X-ca-ca-X
   309      306      307      351         9       180.000      15.16700    2     ; N-C-C-H, prebuilt X-ca-ca-X
   309      310      312      313         9       180.000       4.18400    2     ; N-C-C-C, prebuilt X-c-ca-X
   309      310      312      319         9       180.000       4.18400    2     ; N-C-C-C, prebuilt X-c-ca-X
   309      314      313      312         9       180.000       4.18400    2     ; N-C-C-C, prebuilt X-c-ca-X
   309      314      313      316         9       180.000       4.18400    2     ; N-C-C-C, prebuilt X-c-ca-X
   310      309      314      313         9       180.000      10.46000    2     ; C-N-C-C, prebuilt X-c-n-X
   310      309      314      315         9       180.000      10.46000    2     ; C-N-C-O, prebuilt X-c-n-X
   310      312      313      314         9       180.000      15.16700    2     ; C-C-C-C, prebuilt X-ca-ca-X
   310      312      313      316         9       180.000      15.16700    2     ; C-C-C-C, prebuilt X-ca-ca-X
   310      312      319      318         9       180.000      15.16700    2     ; C-C-C-C, prebuilt X-ca-ca-X
   310      312      319      355         9       180.000      15.16700    2     ; C-C-C-H, prebuilt X-ca-ca-X
   311      310      309      314         9       180.000      10.46000    2     ; O-C-N-C, prebuilt X-c-n-X
   311      310      312      313         9       180.000       4.18400    2     ; O-C-C-C, prebuilt X-c-ca-X
   311      310      312      319         9       180.000       4.18400    2     ; O-C-C-C, prebuilt X-c-ca-X
   312      310      309      314         9       180.000      10.46000    2     ; C-C-N-C, prebuilt X-c-n-X
   312      313      314      315         9       180.000       4.18400    2     ; C-C-C-O, prebuilt X-c-ca-X
   312      313      316      317         9       180.000      15.16700    2     ; C-C-C-C, prebuilt X-ca-ca-X
   312      313      316      353         9       180.000      15.16700    2     ; C-C-C-H, prebuilt X-ca-ca-X
   312      319      318      317         9       180.000      15.16700    2     ; C-C-C-C, prebuilt X-ca-ca-X
   312      319      318      354         9       180.000      15.16700    2     ; C-C-C-H, prebuilt X-ca-ca-X
   313      312      319      318         9       180.000      15.16700    2     ; C-C-C-C, prebuilt X-ca-ca-X
   313      312      319      355         9       180.000      15.16700    2     ; C-C-C-H, prebuilt X-ca-ca-X
   313      316      317      318         9       180.000      15.16700    2     ; C-C-C-C, prebuilt X-ca-cp-X
   313      316      317      359         9       180.000      15.16700    2     ; C-C-C-C, prebuilt X-ca-cp-X
   314      313      312      319         9       180.000      15.16700    2     ; C-C-C-C, prebuilt X-ca-ca-X
   314      313      316      317         9       180.000      15.16700    2     ; C-C-C-C, prebuilt X-ca-ca-X
   314      313      316      353         9       180.000      15.16700    2     ; C-C-C-H, prebuilt X-ca-ca-X
   315      314      313      316         9       180.000       4.18400    2     ; O-C-C-C, prebuilt X-c-ca-X
   316      313      312      319         9       180.000      15.16700    2     ; C-C-C-C, prebuilt X-ca-ca-X
   316      317      318      319         9       180.000      15.16700    2     ; C-C-C-C, prebuilt X-ca-cp-X
   316      317      318      354         9       180.000      15.16700    2     ; C-C-C-H, prebuilt X-ca-cp-X
   316      317      359      360         9       180.000       4.18400    2     ; C-C-C-C, prebuilt X-cp-cp-X
   316      317      359      364         9       180.000       4.18400    2     ; C-C-C-C, prebuilt X-cp-cp-X
   317      318      319      355         9       180.000      15.16700    2     ; C-C-C-H, prebuilt X-ca-ca-X
   317      359      360      361         9       180.000      15.16700    2     ; C-C-C-C, prebuilt X-ca-cp-X
   317      359      360      440         9       180.000      15.16700    2     ; C-C-C-H, prebuilt X-ca-cp-X
   317      359      364      363         9       180.000      15.16700    2     ; C-C-C-C, prebuilt X-ca-cp-X
   317      359      364      442         9       180.000      15.16700    2     ; C-C-C-H, prebuilt X-ca-cp-X
   318      317      316      353         9       180.000      15.16700    2     ; C-C-C-H, prebuilt X-ca-cp-X
   318      317      359      360         9       180.000       4.18400    2     ; C-C-C-C, prebuilt X-cp-cp-X
   318      317      359      364         9       180.000       4.18400    2     ; C-C-C-C, prebuilt X-cp-cp-X
   319      318      317      359         9       180.000      15.16700    2     ; C-C-C-C, prebuilt X-ca-cp-X
   320      263      262      330         9       180.000      15.16700    2     ; C-C-C-H, prebuilt X-ca-ca-X
   320      263      264      331         9       180.000      15.16700    2     ; C-C-C-H, prebuilt X-ca-ca-X
   321      241      242      322         9       180.000      15.16700    2     ; H-C-C-H, prebuilt X-ca-ca-X
   324      252      253      325         9       180.000      15.16700    2     ; H-C-C-H, prebuilt X-ca-ca-X
   326      255      256      327         9       180.000      15.16700    2     ; H-C-C-H, prebuilt X-ca-ca-X
   329      261      262      330         9       180.000      15.16700    2     ; H-C-C-H, prebuilt X-ca-ca-X
   333      275      276      334         9       180.000      15.16700    2     ; H-C-C-H, prebuilt X-ca-ca-X
   336      281      282      337         9       180.000      15.16700    2     ; H-C-C-H, prebuilt X-ca-ca-X
   338      284      285      339         9       180.000      15.16700    2     ; H-C-C-H, prebuilt X-ca-ca-X
   340      288      289      341         9       180.000      15.16700    2     ; H-C-C-H, prebuilt X-ca-ca-X
   341      289      290      342         9       180.000      15.16700    2     ; H-C-C-H, prebuilt X-ca-ca-X
   342      290      291      343         9       180.000      15.16700    2     ; H-C-C-H, prebuilt X-ca-ca-X
   344      295      296      345         9       180.000      15.16700    2     ; H-C-C-H, prebuilt X-ca-ca-X
   346      298      299      347         9       180.000      15.16700    2     ; H-C-C-H, prebuilt X-ca-ca-X
   349      304      305      350         9       180.000      15.16700    2     ; H-C-C-H, prebuilt X-ca-ca-X
   351      307      308      352         9       180.000      15.16700    2     ; H-C-C-H, prebuilt X-ca-ca-X
   353      316      317      359         9       180.000      15.16700    2     ; H-C-C-C, prebuilt X-ca-cp-X
   354      318      317      359         9       180.000      15.16700    2     ; H-C-C-C, prebuilt X-ca-cp-X
   354      318      319      355         9       180.000      15.16700    2     ; H-C-C-H, prebuilt X-ca-ca-X
   359      360      361      362         9       180.000      15.16700    2     ; C-C-C-C, prebuilt X-ca-ca-X
   359      360      361      441         9       180.000      15.16700    2     ; C-C-C-H, prebuilt X-ca-ca-X
   359      364      363      362         9       180.000      15.16700    2     ; C-C-C-C, prebuilt X-ca-ca-X
   359      364      363      365         9       180.000      15.16700    2     ; C-C-C-C, prebuilt X-ca-ca-X
   360      359      364      363         9       180.000      15.16700    2     ; C-C-C-C, prebuilt X-ca-cp-X
   360      359      364      442         9       180.000      15.16700    2     ; C-C-C-H, prebuilt X-ca-cp-X
   360      361      362      363         9       180.000      15.16700    2     ; C-C-C-C, prebuilt X-ca-ca-X
   360      361      362      368         9       180.000      15.16700    2     ; C-C-C-C, prebuilt X-ca-ca-X
   361      360      359      364         9       180.000      15.16700    2     ; C-C-C-C, prebuilt X-ca-cp-X
   361      362      363      364         9       180.000      15.16700    2     ; C-C-C-C, prebuilt X-ca-ca-X
   361      362      363      365         9       180.000      15.16700    2     ; C-C-C-C, prebuilt X-ca-ca-X
   361      362      368      367         9       180.000       4.18400    2     ; C-C-C-N, prebuilt X-c-ca-X
   361      362      368      369         9       180.000       4.18400    2     ; C-C-C-O, prebuilt X-c-ca-X
   362      361      360      440         9       180.000      15.16700    2     ; C-C-C-H, prebuilt X-ca-ca-X
   362      363      364      442         9       180.000      15.16700    2     ; C-C-C-H, prebuilt X-ca-ca-X
   362      363      365      366         9       180.000       4.18400    2     ; C-C-C-O, prebuilt X-c-ca-X
   362      363      365      367         9       180.000       4.18400    2     ; C-C-C-N, prebuilt X-c-ca-X
   362      368      367      365         9       180.000      10.46000    2     ; C-C-N-C, prebuilt X-c-n-X
   362      368      367      370         9       180.000      10.46000    2     ; C-C-N-C, prebuilt X-c-n-X
   363      362      361      441         9       180.000      15.16700    2     ; C-C-C-H, prebuilt X-ca-ca-X
   363      362      368      367         9       180.000       4.18400    2     ; C-C-C-N, prebuilt X-c-ca-X
   363      362      368      369         9       180.000       4.18400    2     ; C-C-C-O, prebuilt X-c-ca-X
   363      365      367      368         9       180.000      10.46000    2     ; C-C-N-C, prebuilt X-c-n-X
   363      365      367      370         9       180.000      10.46000    2     ; C-C-N-C, prebuilt X-c-n-X
   364      359      360      440         9       180.000      15.16700    2     ; C-C-C-H, prebuilt X-ca-cp-X
   364      363      362      368         9       180.000      15.16700    2     ; C-C-C-C, prebuilt X-ca-ca-X
   364      363      365      366         9       180.000       4.18400    2     ; C-C-C-O, prebuilt X-c-ca-X
   364      363      365      367         9       180.000       4.18400    2     ; C-C-C-N, prebuilt X-c-ca-X
   365      363      362      368         9       180.000      15.16700    2     ; C-C-C-C, prebuilt X-ca-ca-X
   365      363      364      442         9       180.000      15.16700    2     ; C-C-C-H, prebuilt X-ca-ca-X
   365      367      368      369         9       180.000      10.46000    2     ; C-N-C-O, prebuilt X-c-n-X
   365      367      370      371         9       180.000       1.88280    2     ; C-N-C-C, prebuilt X-ca-n-X
   365      367      370      375         9       180.000       1.88280    2     ; C-N-C-C, prebuilt X-ca-n-X
   366      365      367      368         9       180.000      10.46000    2     ; O-C-N-C, prebuilt X-c-n-X
   366      365      367      370         9       180.000      10.46000    2     ; O-C-N-C, prebuilt X-c-n-X
   367      370      371      372         9       180.000      15.16700    2     ; N-C-C-C, prebuilt X-ca-ca-X
   367      370      371      443         9       180.000      15.16700    2     ; N-C-C-H, prebuilt X-ca-ca-X
   367      370      375      374         9       180.000      15.16700    2     ; N-C-C-C, prebuilt X-ca-ca-X
   367      370      375      446         9       180.000      15.16700    2     ; N-C-C-H, prebuilt X-ca-ca-X
   368      362      361      441         9       180.000      15.16700    2     ; C-C-C-H, prebuilt X-ca-ca-X
   368      367      370      371         9       180.000       1.88280    2     ; C-N-C-C, prebuilt X-ca-n-X
   368      367      370      375         9       180.000       1.88280    2     ; C-N-C-C, prebuilt X-ca-n-X
   369      368      367      370         9       180.000      10.46000    2     ; O-C-N-C, prebuilt X-c-n-X
   370      371      372      373         9       180.000      15.16700    2     ; C-C-C-C, prebuilt X-ca-ca-X
   370      371      372      444         9       180.000      15.16700    2     ; C-C-C-H, prebuilt X-ca-ca-X
   370      375      374      373         9       180.000      15.16700    2     ; C-C-C-C, prebuilt X-ca-ca-X
   370      375      374      445         9       180.000      15.16700    2     ; C-C-C-H, prebuilt X-ca-ca-X
   371      370      375      374         9       180.000      15.16700    2     ; C-C-C-C, prebuilt X-ca-ca-X
   371      370      375      446         9       180.000      15.16700    2     ; C-C-C-H, prebuilt X-ca-ca-X
   371      372      373      374         9       180.000      15.16700    2     ; C-C-C-C, prebuilt X-ca-ca-X
   371      372      373      376         9       180.000      15.16700    2     ; C-C-C-N, prebuilt X-ca-ca-X
   372      371      370      375         9       180.000      15.16700    2     ; C-C-C-C, prebuilt X-ca-ca-X
   372      373      374      375         9       180.000      15.16700    2     ; C-C-C-C, prebuilt X-ca-ca-X
   372      373      374      445         9       180.000      15.16700    2     ; C-C-C-H, prebuilt X-ca-ca-X
   372      373      376      377         9       180.000       1.88280    2     ; C-C-N-C, prebuilt X-ca-n-X
   372      373      376      447         9       180.000       1.88280    2     ; C-C-N-H, prebuilt X-ca-n-X
   373      372      371      443         9       180.000      15.16700    2     ; C-C-C-H, prebuilt X-ca-ca-X
   373      374      375      446         9       180.000      15.16700    2     ; C-C-C-H, prebuilt X-ca-ca-X
   373      376      377      378         9       180.000      10.46000    2     ; C-N-C-O, prebuilt X-c-n-X
   373      376      377      379         9       180.000      10.46000    2     ; C-N-C-C, prebuilt X-c-n-X
   374      373      372      444         9       180.000      15.16700    2     ; C-C-C-H, prebuilt X-ca-ca-X
   374      373      376      377         9       180.000       1.88280    2     ; C-C-N-C, prebuilt X-ca-n-X
   374      373      376      447         9       180.000       1.88280    2     ; C-C-N-H, prebuilt X-ca-n-X
   375      370      371      443         9       180.000      15.16700    2     ; C-C-C-H, prebuilt X-ca-ca-X
   375      374      373      376         9       180.000      15.16700    2     ; C-C-C-N, prebuilt X-ca-ca-X
   376      373      372      444         9       180.000      15.16700    2     ; N-C-C-H, prebuilt X-ca-ca-X
   376      373      374      445         9       180.000      15.16700    2     ; N-C-C-H, prebuilt X-ca-ca-X
   376      377      379      380         9       180.000       4.18400    2     ; N-C-C-C, prebuilt X-c-ca-X
   376      377      379      384         9       180.000       4.18400    2     ; N-C-C-C, prebuilt X-c-ca-X
   377      379      380      381         9       180.000      15.16700    2     ; C-C-C-C, prebuilt X-ca-ca-X
   377      379      380      448         9       180.000      15.16700    2     ; C-C-C-H, prebuilt X-ca-ca-X
   377      379      384      383         9       180.000      15.16700    2     ; C-C-C-C, prebuilt X-ca-ca-X
   377      379      384      385         9       180.000      15.16700    2     ; C-C-C-N, prebuilt X-ca-ca-X
   378      377      376      447         9       180.000      10.46000    2     ; O-C-N-H, prebuilt hn-n-c-o
   378      377      376      447         9         0.000       8.36800    1     ; O-C-N-H, prebuilt hn-n-c-o
   378      377      379      380         9       180.000       4.18400    2     ; O-C-C-C, prebuilt X-c-ca-X
   378      377      379      384         9       180.000       4.18400    2     ; O-C-C-C, prebuilt X-c-ca-X
   379      377      376      447         9       180.000      10.46000    2     ; C-C-N-H, prebuilt X-c-n-X
   379      380      381      382         9       180.000      15.16700    2     ; C-C-C-C, prebuilt X-ca-ca-X
   379      380      381      449         9       180.000      15.16700    2     ; C-C-C-H, prebuilt X-ca-ca-X
   379      384      383      382         9       180.000      15.16700    2     ; C-C-C-C, prebuilt X-ca-ca-X
   379      384      383      450         9       180.000      15.16700    2     ; C-C-C-H, prebuilt X-ca-ca-X
   379      384      385      386         9       180.000       1.88280    2     ; C-C-N-C, prebuilt X-ca-n-X
   379      384      385      390         9       180.000       1.88280    2     ; C-C-N-C, prebuilt X-ca-n-X
   380      379      384      383         9       180.000      15.16700    2     ; C-C-C-C, prebuilt X-ca-ca-X
   380      379      384      385         9       180.000      15.16700    2     ; C-C-C-N, prebuilt X-ca-ca-X
   380      381      382      383         9       180.000      15.16700    2     ; C-C-C-C, prebuilt X-ca-ca-X
   380      381      382      439         9       180.000      15.16700    2     ; C-C-C-C, prebuilt X-ca-ca-X
   381      380      379      384         9       180.000      15.16700    2     ; C-C-C-C, prebuilt X-ca-ca-X
   381      382      383      384         9       180.000      15.16700    2     ; C-C-C-C, prebuilt X-ca-ca-X
   381      382      383      450         9       180.000      15.16700    2     ; C-C-C-H, prebuilt X-ca-ca-X
   381      382      439      475         9         0.000       0.00000    2     ; C-C-C-H, prebuilt X-c3-ca-X
   381      382      439      476         9         0.000       0.00000    2     ; C-C-C-H, prebuilt X-c3-ca-X
   381      382      439      477         9         0.000       0.00000    2     ; C-C-C-H, prebuilt X-c3-ca-X
   382      381      380      448         9       180.000      15.16700    2     ; C-C-C-H, prebuilt X-ca-ca-X
   382      383      384      385         9       180.000      15.16700    2     ; C-C-C-N, prebuilt X-ca-ca-X
   383      382      381      449         9       180.000      15.16700    2     ; C-C-C-H, prebuilt X-ca-ca-X
   383      382      439      475         9         0.000       0.00000    2     ; C-C-C-H, prebuilt X-c3-ca-X
   383      382      439      476         9         0.000       0.00000    2     ; C-C-C-H, prebuilt X-c3-ca-X
   383      382      439      477         9         0.000       0.00000    2     ; C-C-C-H, prebuilt X-c3-ca-X
   383      384      385      386         9       180.000       1.88280    2     ; C-C-N-C, prebuilt X-ca-n-X
   383      384      385      390         9       180.000       1.88280    2     ; C-C-N-C, prebuilt X-ca-n-X
   384      379      380      448         9       180.000      15.16700    2     ; C-C-C-H, prebuilt X-ca-ca-X
   384      383      382      439         9       180.000      15.16700    2     ; C-C-C-C, prebuilt X-ca-ca-X
   384      385      386      387         9       180.000      10.46000    2     ; C-N-C-O, prebuilt X-c-n-X
   384      385      386      388         9       180.000      10.46000    2     ; C-N-C-C, prebuilt X-c-n-X
   384      385      390      389         9       180.000      10.46000    2     ; C-N-C-C, prebuilt X-c-n-X
   384      385      390      391         9       180.000      10.46000    2     ; C-N-C-O, prebuilt X-c-n-X
   385      384      383      450         9       180.000      15.16700    2     ; N-C-C-H, prebuilt X-ca-ca-X
   385      386      388      389         9       180.000       4.18400    2     ; N-C-C-C, prebuilt X-c-ca-X
   385      386      388      395         9       180.000       4.18400    2     ; N-C-C-C, prebuilt X-c-ca-X
   385      390      389      388         9       180.000       4.18400    2     ; N-C-C-C, prebuilt X-c-ca-X
   385      390      389      392         9       180.000       4.18400    2     ; N-C-C-C, prebuilt X-c-ca-X
   386      385      390      389         9       180.000      10.46000    2     ; C-N-C-C, prebuilt X-c-n-X
   386      385      390      391         9       180.000      10.46000    2     ; C-N-C-O, prebuilt X-c-n-X
   386      388      389      390         9       180.000      15.16700    2     ; C-C-C-C, prebuilt X-ca-ca-X
   386      388      389      392         9       180.000      15.16700    2     ; C-C-C-C, prebuilt X-ca-ca-X
   386      388      395      394         9       180.000      15.16700    2     ; C-C-C-C, prebuilt X-ca-ca-X
   386      388      395      453         9       180.000      15.16700    2     ; C-C-C-H, prebuilt X-ca-ca-X
   387      386      385      390         9       180.000      10.46000    2     ; O-C-N-C, prebuilt X-c-n-X
   387      386      388      389         9       180.000       4.18400    2     ; O-C-C-C, prebuilt X-c-ca-X
   387      386      388      395         9       180.000       4.18400    2     ; O-C-C-C, prebuilt X-c-ca-X
   388      386      385      390         9       180.000      10.46000    2     ; C-C-N-C, prebuilt X-c-n-X
   388      389      390      391         9       180.000       4.18400    2     ; C-C-C-O, prebuilt X-c-ca-X
   388      389      392      393         9       180.000      15.16700    2     ; C-C-C-C, prebuilt X-ca-ca-X
   388      389      392      451         9       180.000      15.16700    2     ; C-C-C-H, prebuilt X-ca-ca-X
   388      395      394      393         9       180.000      15.16700    2     ; C-C-C-C, prebuilt X-ca-ca-X
   388      395      394      452         9       180.000      15.16700    2     ; C-C-C-H, prebuilt X-ca-ca-X
   389      388      395      394         9       180.000      15.16700    2     ; C-C-C-C, prebuilt X-ca-ca-X
   389      388      395      453         9       180.000      15.16700    2     ; C-C-C-H, prebuilt X-ca-ca-X
   389      392      393      394         9       180.000      15.16700    2     ; C-C-C-C, prebuilt X-ca-ca-X
   389      392      393      396         9       180.000      15.16700    2     ; C-C-C-C, prebuilt X-ca-ca-X
   390      389      388      395         9       180.000      15.16700    2     ; C-C-C-C, prebuilt X-ca-ca-X
   390      389      392      393         9       180.000      15.16700    2     ; C-C-C-C, prebuilt X-ca-ca-X
   390      389      392      451         9       180.000      15.16700    2     ; C-C-C-H, prebuilt X-ca-ca-X
   391      390      389      392         9       180.000       4.18400    2     ; O-C-C-C, prebuilt X-c-ca-X
   392      389      388      395         9       180.000      15.16700    2     ; C-C-C-C, prebuilt X-ca-ca-X
   392      393      394      395         9       180.000      15.16700    2     ; C-C-C-C, prebuilt X-ca-ca-X
   392      393      394      452         9       180.000      15.16700    2     ; C-C-C-H, prebuilt X-ca-ca-X
   392      393      396      397         9       180.000       4.18400    2     ; C-C-C-O, prebuilt X-c-ca-X
   392      393      396      398         9       180.000       4.18400    2     ; C-C-C-N, prebuilt X-c-ca-X
   393      394      395      453         9       180.000      15.16700    2     ; C-C-C-H, prebuilt X-ca-ca-X
   393      396      398      399         9       180.000      10.46000    2     ; C-C-N-C, prebuilt X-c-n-X
   393      396      398      454         9       180.000      10.46000    2     ; C-C-N-H, prebuilt X-c-n-X
   394      393      392      451         9       180.000      15.16700    2     ; C-C-C-H, prebuilt X-ca-ca-X
   394      393      396      397         9       180.000       4.18400    2     ; C-C-C-O, prebuilt X-c-ca-X
   394      393      396      398         9       180.000       4.18400    2     ; C-C-C-N, prebuilt X-c-ca-X
   395      394      393      396         9       180.000      15.16700    2     ; C-C-C-C, prebuilt X-ca-ca-X
   396      393      392      451         9       180.000      15.16700    2     ; C-C-C-H, prebuilt X-ca-ca-X
   396      393      394      452         9       180.000      15.16700    2     ; C-C-C-H, prebuilt X-ca-ca-X
   396      398      399      400         9       180.000       1.88280    2     ; C-N-C-C, prebuilt X-ca-n-X
   396      398      399      404         9       180.000       1.88280    2     ; C-N-C-C, prebuilt X-ca-n-X
   397      396      398      399         9       180.000      10.46000    2     ; O-C-N-C, prebuilt X-c-n-X
   397      396      398      454         9       180.000      10.46000    2     ; O-C-N-H, prebuilt hn-n-c-o
   397      396      398      454         9         0.000       8.36800    1     ; O-C-N-H, prebuilt hn-n-c-o
   398      399      400      401         9       180.000      15.16700    2     ; N-C-C-C, prebuilt X-ca-ca-X
   398      399      400      455         9       180.000      15.16700    2     ; N-C-C-H, prebuilt X-ca-ca-X
   398      399      404      403         9       180.000      15.16700    2     ; N-C-C-C, prebuilt X-ca-ca-X
   398      399      404      458         9       180.000      15.16700    2     ; N-C-C-H, prebuilt X-ca-ca-X
   399      400      401      402         9       180.000      15.16700    2     ; C-C-C-C, prebuilt X-ca-ca-X
   399      400      401      456         9       180.000      15.16700    2     ; C-C-C-H, prebuilt X-ca-ca-X
   399      404      403      402         9       180.000      15.16700    2     ; C-C-C-C, prebuilt X-ca-ca-X
   399      404      403      457         9       180.000      15.16700    2     ; C-C-C-H, prebuilt X-ca-ca-X
   400      399      398      454         9       180.000       1.88280    2     ; C-C-N-H, prebuilt X-ca-n-X
   400      399      404      403         9       180.000      15.16700    2     ; C-C-C-C, prebuilt X-ca-ca-X
   400      399      404      458         9       180.000      15.16700    2     ; C-C-C-H, prebuilt X-ca-ca-X
   400      401      402      403         9       180.000      15.16700    2     ; C-C-C-C, prebuilt X-ca-ca-X
   400      401      402      405         9       180.000      15.16700    2     ; C-C-C-O, prebuilt X-ca-ca-X
   401      400      399      404         9       180.000      15.16700    2     ; C-C-C-C, prebuilt X-ca-ca-X
   401      402      403      404         9       180.000      15.16700    2     ; C-C-C-C, prebuilt X-ca-ca-X
   401      402      403      457         9       180.000      15.16700    2     ; C-C-C-H, prebuilt X-ca-ca-X
   401      402      405      406         9       180.000       3.76560    2     ; C-C-O-C, prebuilt X-ca-os-X
   402      401      400      455         9       180.000      15.16700    2     ; C-C-C-H, prebuilt X-ca-ca-X
   402      403      404      458         9       180.000      15.16700    2     ; C-C-C-H, prebuilt X-ca-ca-X
   402      405      406      407         9       180.000       3.76560    2     ; C-O-C-C, prebuilt X-ca-os-X
   402      405      406      411         9       180.000       3.76560    2     ; C-O-C-C, prebuilt X-ca-os-X
   403      402      401      456         9       180.000      15.16700    2     ; C-C-C-H, prebuilt X-ca-ca-X
   403      402      405      406         9       180.000       3.76560    2     ; C-C-O-C, prebuilt X-ca-os-X
   404      399      398      454         9       180.000       1.88280    2     ; C-C-N-H, prebuilt X-ca-n-X
   404      399      400      455         9       180.000      15.16700    2     ; C-C-C-H, prebuilt X-ca-ca-X
   404      403      402      405         9       180.000      15.16700    2     ; C-C-C-O, prebuilt X-ca-ca-X
   405      402      401      456         9       180.000      15.16700    2     ; O-C-C-H, prebuilt X-ca-ca-X
   405      402      403      457         9       180.000      15.16700    2     ; O-C-C-H, prebuilt X-ca-ca-X
   405      406      407      408         9       180.000      15.16700    2     ; O-C-C-C, prebuilt X-ca-ca-X
   405      406      407      459         9       180.000      15.16700    2     ; O-C-C-H, prebuilt X-ca-ca-X
   405      406      411      410         9       180.000      15.16700    2     ; O-C-C-C, prebuilt X-ca-ca-X
   405      406      411      412         9       180.000      15.16700    2     ; O-C-C-O, prebuilt X-ca-ca-X
   406      407      408      409         9       180.000      15.16700    2     ; C-C-C-C, prebuilt X-ca-ca-X
   406      407      408      460         9       180.000      15.16700    2     ; C-C-C-H, prebuilt X-ca-ca-X
   406      411      410      409         9       180.000      15.16700    2     ; C-C-C-C, prebuilt X-ca-ca-X
   406      411      410      462         9       180.000      15.16700    2     ; C-C-C-H, prebuilt X-ca-ca-X
   406      411      412      413         9       180.000       3.76560    2     ; C-C-O-C, prebuilt X-ca-os-X
   407      406      411      410         9       180.000      15.16700    2     ; C-C-C-C, prebuilt X-ca-ca-X
   407      406      411      412         9       180.000      15.16700    2     ; C-C-C-O, prebuilt X-ca-ca-X
   407      408      409      410         9       180.000      15.16700    2     ; C-C-C-C, prebuilt X-ca-ca-X
   407      408      409      461         9       180.000      15.16700    2     ; C-C-C-H, prebuilt X-ca-ca-X
   408      407      406      411         9       180.000      15.16700    2     ; C-C-C-C, prebuilt X-ca-ca-X
   408      409      410      411         9       180.000      15.16700    2     ; C-C-C-C, prebuilt X-ca-ca-X
   408      409      410      462         9       180.000      15.16700    2     ; C-C-C-H, prebuilt X-ca-ca-X
   409      408      407      459         9       180.000      15.16700    2     ; C-C-C-H, prebuilt X-ca-ca-X
   409      410      411      412         9       180.000      15.16700    2     ; C-C-C-O, prebuilt X-ca-ca-X
   410      409      408      460         9       180.000      15.16700    2     ; C-C-C-H, prebuilt X-ca-ca-X
   410      411      412      413         9       180.000       3.76560    2     ; C-C-O-C, prebuilt X-ca-os-X
   411      406      407      459         9       180.000      15.16700    2     ; C-C-C-H, prebuilt X-ca-ca-X
   411      410      409      461         9       180.000      15.16700    2     ; C-C-C-H, prebuilt X-ca-ca-X
   411      412      413      414         9       180.000       3.76560    2     ; C-O-C-C, prebuilt X-ca-os-X
   411      412      413      418         9       180.000       3.76560    2     ; C-O-C-C, prebuilt X-ca-os-X
   412      411      410      462         9       180.000      15.16700    2     ; O-C-C-H, prebuilt X-ca-ca-X
   412      413      414      415         9       180.000      15.16700    2     ; O-C-C-C, prebuilt X-ca-ca-X
   412      413      414      463         9       180.000      15.16700    2     ; O-C-C-H, prebuilt X-ca-ca-X
   412      413      418      417         9       180.000      15.16700    2     ; O-C-C-C, prebuilt X-ca-ca-X
   412      413      418      466         9       180.000      15.16700    2     ; O-C-C-H, prebuilt X-ca-ca-X
   413      414      415      416         9       180.000      15.16700    2     ; C-C-C-C, prebuilt X-ca-ca-X
   413      414      415      464         9       180.000      15.16700    2     ; C-C-C-H, prebuilt X-ca-ca-X
   413      418      417      416         9       180.000      15.16700    2     ; C-C-C-C, prebuilt X-ca-ca-X
   413      418      417      465         9       180.000      15.16700    2     ; C-C-C-H, prebuilt X-ca-ca-X
   414      413      418      417         9       180.000      15.16700    2     ; C-C-C-C, prebuilt X-ca-ca-X
   414      413      418      466         9       180.000      15.16700    2     ; C-C-C-H, prebuilt X-ca-ca-X
   414      415      416      417         9       180.000      15.16700    2     ; C-C-C-C, prebuilt X-ca-ca-X
   414      415      416      419         9       180.000      15.16700    2     ; C-C-C-N, prebuilt X-ca-ca-X
   415      414      413      418         9       180.000      15.16700    2     ; C-C-C-C, prebuilt X-ca-ca-X
   415      416      417      418         9       180.000      15.16700    2     ; C-C-C-C, prebuilt X-ca-ca-X
   415      416      417      465         9       180.000      15.16700    2     ; C-C-C-H, prebuilt X-ca-ca-X
   415      416      419      420         9       180.000       1.88280    2     ; C-C-N-C, prebuilt X-ca-n-X
   415      416      419      467         9       180.000       1.88280    2     ; C-C-N-H, prebuilt X-ca-n-X
   416      415      414      463         9       180.000      15.16700    2     ; C-C-C-H, prebuilt X-ca-ca-X
   416      417      418      466         9       180.000      15.16700    2     ; C-C-C-H, prebuilt X-ca-ca-X
   416      419      420      421         9       180.000      10.46000    2     ; C-N-C-O, prebuilt X-c-n-X
   416      419      420      422         9       180.000      10.46000    2     ; C-N-C-C, prebuilt X-c-n-X
   417      416      415      464         9       180.000      15.16700    2     ; C-C-C-H, prebuilt X-ca-ca-X
   417      416      419      420         9       180.000       1.88280    2     ; C-C-N-C, prebuilt X-ca-n-X
   417      416      419      467         9       180.000       1.88280    2     ; C-C-N-H, prebuilt X-ca-n-X
   418      413      414      463         9       180.000      15.16700    2     ; C-C-C-H, prebuilt X-ca-ca-X
   418      417      416      419         9       180.000      15.16700    2     ; C-C-C-N, prebuilt X-ca-ca-X
   419      416      415      464         9       180.000      15.16700    2     ; N-C-C-H, prebuilt X-ca-ca-X
   419      416      417      465         9       180.000      15.16700    2     ; N-C-C-H, prebuilt X-ca-ca-X
   419      420      422      423         9       180.000       4.18400    2     ; N-C-C-C, prebuilt X-c-ca-X
   419      420      422      427         9       180.000       4.18400    2     ; N-C-C-C, prebuilt X-c-ca-X
   420      422      423      424         9       180.000      15.16700    2     ; C-C-C-C, prebuilt X-ca-ca-X
   420      422      423      468         9       180.000      15.16700    2     ; C-C-C-H, prebuilt X-ca-ca-X
   420      422      427      426         9       180.000      15.16700    2     ; C-C-C-C, prebuilt X-ca-ca-X
   420      422      427      471         9       180.000      15.16700    2     ; C-C-C-H, prebuilt X-ca-ca-X
   421      420      419      467         9       180.000      10.46000    2     ; O-C-N-H, prebuilt hn-n-c-o
   421      420      419      467         9         0.000       8.36800    1     ; O-C-N-H, prebuilt hn-n-c-o
   421      420      422      423         9       180.000       4.18400    2     ; O-C-C-C, prebuilt X-c-ca-X
   421      420      422      427         9       180.000       4.18400    2     ; O-C-C-C, prebuilt X-c-ca-X
   422      420      419      467         9       180.000      10.46000    2     ; C-C-N-H, prebuilt X-c-n-X
   422      423      424      425         9       180.000      15.16700    2     ; C-C-C-C, prebuilt X-ca-ca-X
   422      423      424      469         9       180.000      15.16700    2     ; C-C-C-H, prebuilt X-ca-ca-X
   422      427      426      425         9       180.000      15.16700    2     ; C-C-C-C, prebuilt X-ca-ca-X
   422      427      426      470         9       180.000      15.16700    2     ; C-C-C-H, prebuilt X-ca-ca-X
   423      422      427      426         9       180.000      15.16700    2     ; C-C-C-C, prebuilt X-ca-ca-X
   423      422      427      471         9       180.000      15.16700    2     ; C-C-C-H, prebuilt X-ca-ca-X
   423      424      425      426         9       180.000      15.16700    2     ; C-C-C-C, prebuilt X-ca-ca-X
   423      424      425      428         9       180.000      15.16700    2     ; C-C-C-N, prebuilt X-ca-ca-X
   424      423      422      427         9       180.000      15.16700    2     ; C-C-C-C, prebuilt X-ca-ca-X
   424      425      426      427         9       180.000      15.16700    2     ; C-C-C-C, prebuilt X-ca-ca-X
   424      425      426      470         9       180.000      15.16700    2     ; C-C-C-H, prebuilt X-ca-ca-X
   424      425      428      429         9       180.000       1.88280    2     ; C-C-N-C, prebuilt X-ca-n-X
   424      425      428      433         9       180.000       1.88280    2     ; C-C-N-C, prebuilt X-ca-n-X
   425      424      423      468         9       180.000      15.16700    2     ; C-C-C-H, prebuilt X-ca-ca-X
   425      426      427      471         9       180.000      15.16700    2     ; C-C-C-H, prebuilt X-ca-ca-X
   425      428      429      430         9       180.000      10.46000    2     ; C-N-C-O, prebuilt X-c-n-X
   425      428      429      431         9       180.000      10.46000    2     ; C-N-C-C, prebuilt X-c-n-X
   425      428      433      432         9       180.000      10.46000    2     ; C-N-C-C, prebuilt X-c-n-X
   425      428      433      434         9       180.000      10.46000    2     ; C-N-C-O, prebuilt X-c-n-X
   426      425      424      469         9       180.000      15.16700    2     ; C-C-C-H, prebuilt X-ca-ca-X
   426      425      428      429         9       180.000       1.88280    2     ; C-C-N-C, prebuilt X-ca-n-X
   426      425      428      433         9       180.000       1.88280    2     ; C-C-N-C, prebuilt X-ca-n-X
   427      422      423      468         9       180.000      15.16700    2     ; C-C-C-H, prebuilt X-ca-ca-X
   427      426      425      428         9       180.000      15.16700    2     ; C-C-C-N, prebuilt X-ca-ca-X
   428      425      424      469         9       180.000      15.16700    2     ; N-C-C-H, prebuilt X-ca-ca-X
   428      425      426      470         9       180.000      15.16700    2     ; N-C-C-H, prebuilt X-ca-ca-X
   428      429      431      432         9       180.000       4.18400    2     ; N-C-C-C, prebuilt X-c-ca-X
   428      429      431      438         9       180.000       4.18400    2     ; N-C-C-C, prebuilt X-c-ca-X
   428      433      432      431         9       180.000       4.18400    2     ; N-C-C-C, prebuilt X-c-ca-X
   428      433      432      435         9       180.000       4.18400    2     ; N-C-C-C, prebuilt X-c-ca-X
   429      428      433      432         9       180.000      10.46000    2     ; C-N-C-C, prebuilt X-c-n-X
   429      428      433      434         9       180.000      10.46000    2     ; C-N-C-O, prebuilt X-c-n-X
   429      431      432      433         9       180.000      15.16700    2     ; C-C-C-C, prebuilt X-ca-ca-X
   429      431      432      435         9       180.000      15.16700    2     ; C-C-C-C, prebuilt X-ca-ca-X
   429      431      438      437         9       180.000      15.16700    2     ; C-C-C-C, prebuilt X-ca-ca-X
   429      431      438      474         9       180.000      15.16700    2     ; C-C-C-H, prebuilt X-ca-ca-X
   430      429      428      433         9       180.000      10.46000    2     ; O-C-N-C, prebuilt X-c-n-X
   430      429      431      432         9       180.000       4.18400    2     ; O-C-C-C, prebuilt X-c-ca-X
   430      429      431      438         9       180.000       4.18400    2     ; O-C-C-C, prebuilt X-c-ca-X
   431      429      428      433         9       180.000      10.46000    2     ; C-C-N-C, prebuilt X-c-n-X
   431      432      433      434         9       180.000       4.18400    2     ; C-C-C-O, prebuilt X-c-ca-X
   431      432      435      436         9       180.000      15.16700    2     ; C-C-C-C, prebuilt X-ca-ca-X
   431      432      435      472         9       180.000      15.16700    2     ; C-C-C-H, prebuilt X-ca-ca-X
   431      438      437      436         9       180.000      15.16700    2     ; C-C-C-C, prebuilt X-ca-ca-X
   431      438      437      473         9       180.000      15.16700    2     ; C-C-C-H, prebuilt X-ca-ca-X
   432      431      438      437         9       180.000      15.16700    2     ; C-C-C-C, prebuilt X-ca-ca-X
   432      431      438      474         9       180.000      15.16700    2     ; C-C-C-H, prebuilt X-ca-ca-X
   432      435      436      437         9       180.000      15.16700    2     ; C-C-C-C, prebuilt X-ca-cp-X
   432      435      436      478         9       180.000      15.16700    2     ; C-C-C-C, prebuilt X-ca-cp-X
   433      432      431      438         9       180.000      15.16700    2     ; C-C-C-C, prebuilt X-ca-ca-X
   433      432      435      436         9       180.000      15.16700    2     ; C-C-C-C, prebuilt X-ca-ca-X
   433      432      435      472         9       180.000      15.16700    2     ; C-C-C-H, prebuilt X-ca-ca-X
   434      433      432      435         9       180.000       4.18400    2     ; O-C-C-C, prebuilt X-c-ca-X
   435      432      431      438         9       180.000      15.16700    2     ; C-C-C-C, prebuilt X-ca-ca-X
   435      436      437      438         9       180.000      15.16700    2     ; C-C-C-C, prebuilt X-ca-cp-X
   435      436      437      473         9       180.000      15.16700    2     ; C-C-C-H, prebuilt X-ca-cp-X
   435      436      478      479         9       180.000       4.18400    2     ; C-C-C-C, prebuilt X-cp-cp-X
   435      436      478      483         9       180.000       4.18400    2     ; C-C-C-C, prebuilt X-cp-cp-X
   436      437      438      474         9       180.000      15.16700    2     ; C-C-C-H, prebuilt X-ca-ca-X
   436      478      479      480         9       180.000      15.16700    2     ; C-C-C-C, prebuilt X-ca-cp-X
   436      478      479      559         9       180.000      15.16700    2     ; C-C-C-H, prebuilt X-ca-cp-X
   436      478      483      482         9       180.000      15.16700    2     ; C-C-C-C, prebuilt X-ca-cp-X
   436      478      483      561         9       180.000      15.16700    2     ; C-C-C-H, prebuilt X-ca-cp-X
   437      436      435      472         9       180.000      15.16700    2     ; C-C-C-H, prebuilt X-ca-cp-X
   437      436      478      479         9       180.000       4.18400    2     ; C-C-C-C, prebuilt X-cp-cp-X
   437      436      478      483         9       180.000       4.18400    2     ; C-C-C-C, prebuilt X-cp-cp-X
   438      437      436      478         9       180.000      15.16700    2     ; C-C-C-C, prebuilt X-ca-cp-X
   439      382      381      449         9       180.000      15.16700    2     ; C-C-C-H, prebuilt X-ca-ca-X
   439      382      383      450         9       180.000      15.16700    2     ; C-C-C-H, prebuilt X-ca-ca-X
   440      360      361      441         9       180.000      15.16700    2     ; H-C-C-H, prebuilt X-ca-ca-X
   443      371      372      444         9       180.000      15.16700    2     ; H-C-C-H, prebuilt X-ca-ca-X
   445      374      375      446         9       180.000      15.16700    2     ; H-C-C-H, prebuilt X-ca-ca-X
   448      380      381      449         9       180.000      15.16700    2     ; H-C-C-H, prebuilt X-ca-ca-X
   452      394      395      453         9       180.000      15.16700    2     ; H-C-C-H, prebuilt X-ca-ca-X
   455      400      401      456         9       180.000      15.16700    2     ; H-C-C-H, prebuilt X-ca-ca-X
   457      403      404      458         9       180.000      15.16700    2     ; H-C-C-H, prebuilt X-ca-ca-X
   459      407      408      460         9       180.000      15.16700    2     ; H-C-C-H, prebuilt X-ca-ca-X
   460      408      409      461         9       180.000      15.16700    2     ; H-C-C-H, prebuilt X-ca-ca-X
   461      409      410      462         9       180.000      15.16700    2     ; H-C-C-H, prebuilt X-ca-ca-X
   463      414      415      464         9       180.000      15.16700    2     ; H-C-C-H, prebuilt X-ca-ca-X
   465      417      418      466         9       180.000      15.16700    2     ; H-C-C-H, prebuilt X-ca-ca-X
   468      423      424      469         9       180.000      15.16700    2     ; H-C-C-H, prebuilt X-ca-ca-X
   470      426      427      471         9       180.000      15.16700    2     ; H-C-C-H, prebuilt X-ca-ca-X
   472      435      436      478         9       180.000      15.16700    2     ; H-C-C-C, prebuilt X-ca-cp-X
   473      437      436      478         9       180.000      15.16700    2     ; H-C-C-C, prebuilt X-ca-cp-X
   473      437      438      474         9       180.000      15.16700    2     ; H-C-C-H, prebuilt X-ca-ca-X
   478      479      480      481         9       180.000      15.16700    2     ; C-C-C-C, prebuilt X-ca-ca-X
   478      479      480      560         9       180.000      15.16700    2     ; C-C-C-H, prebuilt X-ca-ca-X
   478      483      482      481         9       180.000      15.16700    2     ; C-C-C-C, prebuilt X-ca-ca-X
   478      483      482      484         9       180.000      15.16700    2     ; C-C-C-C, prebuilt X-ca-ca-X
   479      478      483      482         9       180.000      15.16700    2     ; C-C-C-C, prebuilt X-ca-cp-X
   479      478      483      561         9       180.000      15.16700    2     ; C-C-C-H, prebuilt X-ca-cp-X
   479      480      481      482         9       180.000      15.16700    2     ; C-C-C-C, prebuilt X-ca-ca-X
   479      480      481      487         9       180.000      15.16700    2     ; C-C-C-C, prebuilt X-ca-ca-X
   480      479      478      483         9       180.000      15.16700    2     ; C-C-C-C, prebuilt X-ca-cp-X
   480      481      482      483         9       180.000      15.16700    2     ; C-C-C-C, prebuilt X-ca-ca-X
   480      481      482      484         9       180.000      15.16700    2     ; C-C-C-C, prebuilt X-ca-ca-X
   480      481      487      486         9       180.000       4.18400    2     ; C-C-C-N, prebuilt X-c-ca-X
   480      481      487      488         9       180.000       4.18400    2     ; C-C-C-O, prebuilt X-c-ca-X
   481      480      479      559         9       180.000      15.16700    2     ; C-C-C-H, prebuilt X-ca-ca-X
   481      482      483      561         9       180.000      15.16700    2     ; C-C-C-H, prebuilt X-ca-ca-X
   481      482      484      485         9       180.000       4.18400    2     ; C-C-C-O, prebuilt X-c-ca-X
   481      482      484      486         9       180.000       4.18400    2     ; C-C-C-N, prebuilt X-c-ca-X
   481      487      486      484         9       180.000      10.46000    2     ; C-C-N-C, prebuilt X-c-n-X
   481      487      486      489         9       180.000      10.46000    2     ; C-C-N-C, prebuilt X-c-n-X
   482      481      480      560         9       180.000      15.16700    2     ; C-C-C-H, prebuilt X-ca-ca-X
   482      481      487      486         9       180.000       4.18400    2     ; C-C-C-N, prebuilt X-c-ca-X
   482      481      487      488         9       180.000       4.18400    2     ; C-C-C-O, prebuilt X-c-ca-X
   482      484      486      487         9       180.000      10.46000    2     ; C-C-N-C, prebuilt X-c-n-X
   482      484      486      489         9       180.000      10.46000    2     ; C-C-N-C, prebuilt X-c-n-X
   483      478      479      559         9       180.000      15.16700    2     ; C-C-C-H, prebuilt X-ca-cp-X
   483      482      481      487         9       180.000      15.16700    2     ; C-C-C-C, prebuilt X-ca-ca-X
   483      482      484      485         9       180.000       4.18400    2     ; C-C-C-O, prebuilt X-c-ca-X
   483      482      484      486         9       180.000       4.18400    2     ; C-C-C-N, prebuilt X-c-ca-X
   484      482      481      487         9       180.000      15.16700    2     ; C-C-C-C, prebuilt X-ca-ca-X
   484      482      483      561         9       180.000      15.16700    2     ; C-C-C-H, prebuilt X-ca-ca-X
   484      486      487      488         9       180.000      10.46000    2     ; C-N-C-O, prebuilt X-c-n-X
   484      486      489      490         9       180.000       1.88280    2     ; C-N-C-C, prebuilt X-ca-n-X
   484      486      489      494         9       180.000       1.88280    2     ; C-N-C-C, prebuilt X-ca-n-X
   485      484      486      487         9       180.000      10.46000    2     ; O-C-N-C, prebuilt X-c-n-X
   485      484      486      489         9       180.000      10.46000    2     ; O-C-N-C, prebuilt X-c-n-X
   486      489      490      491         9       180.000      15.16700    2     ; N-C-C-C, prebuilt X-ca-ca-X
   486      489      490      562         9       180.000      15.16700    2     ; N-C-C-H, prebuilt X-ca-ca-X
   486      489      494      493         9       180.000      15.16700    2     ; N-C-C-C, prebuilt X-ca-ca-X
   486      489      494      565         9       180.000      15.16700    2     ; N-C-C-H, prebuilt X-ca-ca-X
   487      481      480      560         9       180.000      15.16700    2     ; C-C-C-H, prebuilt X-ca-ca-X
   487      486      489      490         9       180.000       1.88280    2     ; C-N-C-C, prebuilt X-ca-n-X
   487      486      489      494         9       180.000       1.88280    2     ; C-N-C-C, prebuilt X-ca-n-X
   488      487      486      489         9       180.000      10.46000    2     ; O-C-N-C, prebuilt X-c-n-X
   489      490      491      492         9       180.000      15.16700    2     ; C-C-C-C, prebuilt X-ca-ca-X
   489      490      491      563         9       180.000      15.16700    2     ; C-C-C-H, prebuilt X-ca-ca-X
   489      494      493      492         9       180.000      15.16700    2     ; C-C-C-C, prebuilt X-ca-ca-X
   489      494      493      564         9       180.000      15.16700    2     ; C-C-C-H, prebuilt X-ca-ca-X
   490      489      494      493         9       180.000      15.16700    2     ; C-C-C-C, prebuilt X-ca-ca-X
   490      489      494      565         9       180.000      15.16700    2     ; C-C-C-H, prebuilt X-ca-ca-X
   490      491      492      493         9       180.000      15.16700    2     ; C-C-C-C, prebuilt X-ca-ca-X
   490      491      492      495         9       180.000      15.16700    2     ; C-C-C-N, prebuilt X-ca-ca-X
   491      490      489      494         9       180.000      15.16700    2     ; C-C-C-C, prebuilt X-ca-ca-X
   491      492      493      494         9       180.000      15.16700    2     ; C-C-C-C, prebuilt X-ca-ca-X
   491      492      493      564         9       180.000      15.16700    2     ; C-C-C-H, prebuilt X-ca-ca-X
   491      492      495      496         9       180.000       1.88280    2     ; C-C-N-C, prebuilt X-ca-n-X
   491      492      495      566         9       180.000       1.88280    2     ; C-C-N-H, prebuilt X-ca-n-X
   492      491      490      562         9       180.000      15.16700    2     ; C-C-C-H, prebuilt X-ca-ca-X
   492      493      494      565         9       180.000      15.16700    2     ; C-C-C-H, prebuilt X-ca-ca-X
   492      495      496      497         9       180.000      10.46000    2     ; C-N-C-O, prebuilt X-c-n-X
   492      495      496      498         9       180.000      10.46000    2     ; C-N-C-C, prebuilt X-c-n-X
   493      492      491      563         9       180.000      15.16700    2     ; C-C-C-H, prebuilt X-ca-ca-X
   493      492      495      496         9       180.000       1.88280    2     ; C-C-N-C, prebuilt X-ca-n-X
   493      492      495      566         9       180.000       1.88280    2     ; C-C-N-H, prebuilt X-ca-n-X
   494      489      490      562         9       180.000      15.16700    2     ; C-C-C-H, prebuilt X-ca-ca-X
   494      493      492      495         9       180.000      15.16700    2     ; C-C-C-N, prebuilt X-ca-ca-X
   495      492      491      563         9       180.000      15.16700    2     ; N-C-C-H, prebuilt X-ca-ca-X
   495      492      493      564         9       180.000      15.16700    2     ; N-C-C-H, prebuilt X-ca-ca-X
   495      496      498      499         9       180.000       4.18400    2     ; N-C-C-C, prebuilt X-c-ca-X
   495      496      498      503         9       180.000       4.18400    2     ; N-C-C-C, prebuilt X-c-ca-X
   496      498      499      500         9       180.000      15.16700    2     ; C-C-C-C, prebuilt X-ca-ca-X
   496      498      499      567         9       180.000      15.16700    2     ; C-C-C-H, prebuilt X-ca-ca-X
   496      498      503      502         9       180.000      15.16700    2     ; C-C-C-C, prebuilt X-ca-ca-X
   496      498      503      504         9       180.000      15.16700    2     ; C-C-C-N, prebuilt X-ca-ca-X
   497      496      495      566         9       180.000      10.46000    2     ; O-C-N-H, prebuilt hn-n-c-o
   497      496      495      566         9         0.000       8.36800    1     ; O-C-N-H, prebuilt hn-n-c-o
   497      496      498      499         9       180.000       4.18400    2     ; O-C-C-C, prebuilt X-c-ca-X
   497      496      498      503         9       180.000       4.18400    2     ; O-C-C-C, prebuilt X-c-ca-X
   498      496      495      566         9       180.000      10.46000    2     ; C-C-N-H, prebuilt X-c-n-X
   498      499      500      501         9       180.000      15.16700    2     ; C-C-C-C, prebuilt X-ca-ca-X
   498      499      500      568         9       180.000      15.16700    2     ; C-C-C-H, prebuilt X-ca-ca-X
   498      503      502      501         9       180.000      15.16700    2     ; C-C-C-C, prebuilt X-ca-ca-X
   498      503      502      569         9       180.000      15.16700    2     ; C-C-C-H, prebuilt X-ca-ca-X
   498      503      504      505         9       180.000       1.88280    2     ; C-C-N-C, prebuilt X-ca-n-X
   498      503      504      509         9       180.000       1.88280    2     ; C-C-N-C, prebuilt X-ca-n-X
   499      498      503      502         9       180.000      15.16700    2     ; C-C-C-C, prebuilt X-ca-ca-X
   499      498      503      504         9       180.000      15.16700    2     ; C-C-C-N, prebuilt X-ca-ca-X
   499      500      501      502         9       180.000      15.16700    2     ; C-C-C-C, prebuilt X-ca-ca-X
   499      500      501      558         9       180.000      15.16700    2     ; C-C-C-C, prebuilt X-ca-ca-X
   500      499      498      503         9       180.000      15.16700    2     ; C-C-C-C, prebuilt X-ca-ca-X
   500      501      502      503         9       180.000      15.16700    2     ; C-C-C-C, prebuilt X-ca-ca-X
   500      501      502      569         9       180.000      15.16700    2     ; C-C-C-H, prebuilt X-ca-ca-X
   500      501      558      594         9         0.000       0.00000    2     ; C-C-C-H, prebuilt X-c3-ca-X
   500      501      558      595         9         0.000       0.00000    2     ; C-C-C-H, prebuilt X-c3-ca-X
   500      501      558      596         9         0.000       0.00000    2     ; C-C-C-H, prebuilt X-c3-ca-X
   501      500      499      567         9       180.000      15.16700    2     ; C-C-C-H, prebuilt X-ca-ca-X
   501      502      503      504         9       180.000      15.16700    2     ; C-C-C-N, prebuilt X-ca-ca-X
   502      501      500      568         9       180.000      15.16700    2     ; C-C-C-H, prebuilt X-ca-ca-X
   502      501      558      594         9         0.000       0.00000    2     ; C-C-C-H, prebuilt X-c3-ca-X
   502      501      558      595         9         0.000       0.00000    2     ; C-C-C-H, prebuilt X-c3-ca-X
   502      501      558      596         9         0.000       0.00000    2     ; C-C-C-H, prebuilt X-c3-ca-X
   502      503      504      505         9       180.000       1.88280    2     ; C-C-N-C, prebuilt X-ca-n-X
   502      503      504      509         9       180.000       1.88280    2     ; C-C-N-C, prebuilt X-ca-n-X
   503      498      499      567         9       180.000      15.16700    2     ; C-C-C-H, prebuilt X-ca-ca-X
   503      502      501      558         9       180.000      15.16700    2     ; C-C-C-C, prebuilt X-ca-ca-X
   503      504      505      506         9       180.000      10.46000    2     ; C-N-C-O, prebuilt X-c-n-X
   503      504      505      507         9       180.000      10.46000    2     ; C-N-C-C, prebuilt X-c-n-X
   503      504      509      508         9       180.000      10.46000    2     ; C-N-C-C, prebuilt X-c-n-X
   503      504      509      510         9       180.000      10.46000    2     ; C-N-C-O, prebuilt X-c-n-X
   504      503      502      569         9       180.000      15.16700    2     ; N-C-C-H, prebuilt X-ca-ca-X
   504      505      507      508         9       180.000       4.18400    2     ; N-C-C-C, prebuilt X-c-ca-X
   504      505      507      514         9       180.000       4.18400    2     ; N-C-C-C, prebuilt X-c-ca-X
   504      509      508      507         9       180.000       4.18400    2     ; N-C-C-C, prebuilt X-c-ca-X
   504      509      508      511         9       180.000       4.18400    2     ; N-C-C-C, prebuilt X-c-ca-X
   505      504      509      508         9       180.000      10.46000    2     ; C-N-C-C, prebuilt X-c-n-X
   505      504      509      510         9       180.000      10.46000    2     ; C-N-C-O, prebuilt X-c-n-X
   505      507      508      509         9       180.000      15.16700    2     ; C-C-C-C, prebuilt X-ca-ca-X
   505      507      508      511         9       180.000      15.16700    2     ; C-C-C-C, prebuilt X-ca-ca-X
   505      507      514      513         9       180.000      15.16700    2     ; C-C-C-C, prebuilt X-ca-ca-X
   505      507      514      572         9       180.000      15.16700    2     ; C-C-C-H, prebuilt X-ca-ca-X
   506      505      504      509         9       180.000      10.46000    2     ; O-C-N-C, prebuilt X-c-n-X
   506      505      507      508         9       180.000       4.18400    2     ; O-C-C-C, prebuilt X-c-ca-X
   506      505      507      514         9       180.000       4.18400    2     ; O-C-C-C, prebuilt X-c-ca-X
   507      505      504      509         9       180.000      10.46000    2     ; C-C-N-C, prebuilt X-c-n-X
   507      508      509      510         9       180.000       4.18400    2     ; C-C-C-O, prebuilt X-c-ca-X
   507      508      511      512         9       180.000      15.16700    2     ; C-C-C-C, prebuilt X-ca-ca-X
   507      508      511      570         9       180.000      15.16700    2     ; C-C-C-H, prebuilt X-ca-ca-X
   507      514      513      512         9       180.000      15.16700    2     ; C-C-C-C, prebuilt X-ca-ca-X
   507      514      513      571         9       180.000      15.16700    2     ; C-C-C-H, prebuilt X-ca-ca-X
   508      507      514      513         9       180.000      15.16700    2     ; C-C-C-C, prebuilt X-ca-ca-X
   508      507      514      572         9       180.000      15.16700    2     ; C-C-C-H, prebuilt X-ca-ca-X
   508      511      512      513         9       180.000      15.16700    2     ; C-C-C-C, prebuilt X-ca-ca-X
   508      511      512      515         9       180.000      15.16700    2     ; C-C-C-C, prebuilt X-ca-ca-X
   509      508      507      514         9       180.000      15.16700    2     ; C-C-C-C, prebuilt X-ca-ca-X
   509      508      511      512         9       180.000      15.16700    2     ; C-C-C-C, prebuilt X-ca-ca-X
   509      508      511      570         9       180.000      15.16700    2     ; C-C-C-H, prebuilt X-ca-ca-X
   510      509      508      511         9       180.000       4.18400    2     ; O-C-C-C, prebuilt X-c-ca-X
   511      508      507      514         9       180.000      15.16700    2     ; C-C-C-C, prebuilt X-ca-ca-X
   511      512      513      514         9       180.000      15.16700    2     ; C-C-C-C, prebuilt X-ca-ca-X
   511      512      513      571         9       180.000      15.16700    2     ; C-C-C-H, prebuilt X-ca-ca-X
   511      512      515      516         9       180.000       4.18400    2     ; C-C-C-O, prebuilt X-c-ca-X
   511      512      515      517         9       180.000       4.18400    2     ; C-C-C-N, prebuilt X-c-ca-X
   512      513      514      572         9       180.000      15.16700    2     ; C-C-C-H, prebuilt X-ca-ca-X
   512      515      517      518         9       180.000      10.46000    2     ; C-C-N-C, prebuilt X-c-n-X
   512      515      517      573         9       180.000      10.46000    2     ; C-C-N-H, prebuilt X-c-n-X
   513      512      511      570         9       180.000      15.16700    2     ; C-C-C-H, prebuilt X-ca-ca-X
   513      512      515      516         9       180.000       4.18400    2     ; C-C-C-O, prebuilt X-c-ca-X
   513      512      515      517         9       180.000       4.18400    2     ; C-C-C-N, prebuilt X-c-ca-X
   514      513      512      515         9       180.000      15.16700    2     ; C-C-C-C, prebuilt X-ca-ca-X
   515      512      511      570         9       180.000      15.16700    2     ; C-C-C-H, prebuilt X-ca-ca-X
   515      512      513      571         9       180.000      15.16700    2     ; C-C-C-H, prebuilt X-ca-ca-X
   515      517      518      519         9       180.000       1.88280    2     ; C-N-C-C, prebuilt X-ca-n-X
   515      517      518      523         9       180.000       1.88280    2     ; C-N-C-C, prebuilt X-ca-n-X
   516      515      517      518         9       180.000      10.46000    2     ; O-C-N-C, prebuilt X-c-n-X
   516      515      517      573         9       180.000      10.46000    2     ; O-C-N-H, prebuilt hn-n-c-o
   516      515      517      573         9         0.000       8.36800    1     ; O-C-N-H, prebuilt hn-n-c-o
   517      518      519      520         9       180.000      15.16700    2     ; N-C-C-C, prebuilt X-ca-ca-X
   517      518      519      574         9       180.000      15.16700    2     ; N-C-C-H, prebuilt X-ca-ca-X
   517      518      523      522         9       180.000      15.16700    2     ; N-C-C-C, prebuilt X-ca-ca-X
   517      518      523      577         9       180.000      15.16700    2     ; N-C-C-H, prebuilt X-ca-ca-X
   518      519      520      521         9       180.000      15.16700    2     ; C-C-C-C, prebuilt X-ca-ca-X
   518      519      520      575         9       180.000      15.16700    2     ; C-C-C-H, prebuilt X-ca-ca-X
   518      523      522      521         9       180.000      15.16700    2     ; C-C-C-C, prebuilt X-ca-ca-X
   518      523      522      576         9       180.000      15.16700    2     ; C-C-C-H, prebuilt X-ca-ca-X
   519      518      517      573         9       180.000       1.88280    2     ; C-C-N-H, prebuilt X-ca-n-X
   519      518      523      522         9       180.000      15.16700    2     ; C-C-C-C, prebuilt X-ca-ca-X
   519      518      523      577         9       180.000      15.16700    2     ; C-C-C-H, prebuilt X-ca-ca-X
   519      520      521      522         9       180.000      15.16700    2     ; C-C-C-C, prebuilt X-ca-ca-X
   519      520      521      524         9       180.000      15.16700    2     ; C-C-C-O, prebuilt X-ca-ca-X
   520      519      518      523         9       180.000      15.16700    2     ; C-C-C-C, prebuilt X-ca-ca-X
   520      521      522      523         9       180.000      15.16700    2     ; C-C-C-C, prebuilt X-ca-ca-X
   520      521      522      576         9       180.000      15.16700    2     ; C-C-C-H, prebuilt X-ca-ca-X
   520      521      524      525         9       180.000       3.76560    2     ; C-C-O-C, prebuilt X-ca-os-X
   521      520      519      574         9       180.000      15.16700    2     ; C-C-C-H, prebuilt X-ca-ca-X
   521      522      523      577         9       180.000      15.16700    2     ; C-C-C-H, prebuilt X-ca-ca-X
   521      524      525      526         9       180.000       3.76560    2     ; C-O-C-C, prebuilt X-ca-os-X
   521      524      525      530         9       180.000       3.76560    2     ; C-O-C-C, prebuilt X-ca-os-X
   522      521      520      575         9       180.000      15.16700    2     ; C-C-C-H, prebuilt X-ca-ca-X
   522      521      524      525         9       180.000       3.76560    2     ; C-C-O-C, prebuilt X-ca-os-X
   523      518      517      573         9       180.000       1.88280    2     ; C-C-N-H, prebuilt X-ca-n-X
   523      518      519      574         9       180.000      15.16700    2     ; C-C-C-H, prebuilt X-ca-ca-X
   523      522      521      524         9       180.000      15.16700    2     ; C-C-C-O, prebuilt X-ca-ca-X
   524      521      520      575         9       180.000      15.16700    2     ; O-C-C-H, prebuilt X-ca-ca-X
   524      521      522      576         9       180.000      15.16700    2     ; O-C-C-H, prebuilt X-ca-ca-X
   524      525      526      527         9       180.000      15.16700    2     ; O-C-C-C, prebuilt X-ca-ca-X
   524      525      526      578         9       180.000      15.16700    2     ; O-C-C-H, prebuilt X-ca-ca-X
   524      525      530      529         9       180.000      15.16700    2     ; O-C-C-C, prebuilt X-ca-ca-X
   524      525      530      531         9       180.000      15.16700    2     ; O-C-C-O, prebuilt X-ca-ca-X
   525      526      527      528         9       180.000      15.16700    2     ; C-C-C-C, prebuilt X-ca-ca-X
   525      526      527      579         9       180.000      15.16700    2     ; C-C-C-H, prebuilt X-ca-ca-X
   525      530      529      528         9       180.000      15.16700    2     ; C-C-C-C, prebuilt X-ca-ca-X
   525      530      529      581         9       180.000      15.16700    2     ; C-C-C-H, prebuilt X-ca-ca-X
   525      530      531      532         9       180.000       3.76560    2     ; C-C-O-C, prebuilt X-ca-os-X
   526      525      530      529         9       180.000      15.16700    2     ; C-C-C-C, prebuilt X-ca-ca-X
   526      525      530      531         9       180.000      15.16700    2     ; C-C-C-O, prebuilt X-ca-ca-X
   526      527      528      529         9       180.000      15.16700    2     ; C-C-C-C, prebuilt X-ca-ca-X
   526      527      528      580         9       180.000      15.16700    2     ; C-C-C-H, prebuilt X-ca-ca-X
   527      526      525      530         9       180.000      15.16700    2     ; C-C-C-C, prebuilt X-ca-ca-X
   527      528      529      530         9       180.000      15.16700    2     ; C-C-C-C, prebuilt X-ca-ca-X
   527      528      529      581         9       180.000      15.16700    2     ; C-C-C-H, prebuilt X-ca-ca-X
   528      527      526      578         9       180.000      15.16700    2     ; C-C-C-H, prebuilt X-ca-ca-X
   528      529      530      531         9       180.000      15.16700    2     ; C-C-C-O, prebuilt X-ca-ca-X
   529      528      527      579         9       180.000      15.16700    2     ; C-C-C-H, prebuilt X-ca-ca-X
   529      530      531      532         9       180.000       3.76560    2     ; C-C-O-C, prebuilt X-ca-os-X
   530      525      526      578         9       180.000      15.16700    2     ; C-C-C-H, prebuilt X-ca-ca-X
   530      529      528      580         9       180.000      15.16700    2     ; C-C-C-H, prebuilt X-ca-ca-X
   530      531      532      533         9       180.000       3.76560    2     ; C-O-C-C, prebuilt X-ca-os-X
   530      531      532      537         9       180.000       3.76560    2     ; C-O-C-C, prebuilt X-ca-os-X
   531      530      529      581         9       180.000      15.16700    2     ; O-C-C-H, prebuilt X-ca-ca-X
   531      532      533      534         9       180.000      15.16700    2     ; O-C-C-C, prebuilt X-ca-ca-X
   531      532      533      582         9       180.000      15.16700    2     ; O-C-C-H, prebuilt X-ca-ca-X
   531      532      537      536         9       180.000      15.16700    2     ; O-C-C-C, prebuilt X-ca-ca-X
   531      532      537      585         9       180.000      15.16700    2     ; O-C-C-H, prebuilt X-ca-ca-X
   532      533      534      535         9       180.000      15.16700    2     ; C-C-C-C, prebuilt X-ca-ca-X
   532      533      534      583         9       180.000      15.16700    2     ; C-C-C-H, prebuilt X-ca-ca-X
   532      537      536      535         9       180.000      15.16700    2     ; C-C-C-C, prebuilt X-ca-ca-X
   532      537      536      584         9       180.000      15.16700    2     ; C-C-C-H, prebuilt X-ca-ca-X
   533      532      537      536         9       180.000      15.16700    2     ; C-C-C-C, prebuilt X-ca-ca-X
   533      532      537      585         9       180.000      15.16700    2     ; C-C-C-H, prebuilt X-ca-ca-X
   533      534      535      536         9       180.000      15.16700    2     ; C-C-C-C, prebuilt X-ca-ca-X
   533      534      535      538         9       180.000      15.16700    2     ; C-C-C-N, prebuilt X-ca-ca-X
   534      533      532      537         9       180.000      15.16700    2     ; C-C-C-C, prebuilt X-ca-ca-X
   534      535      536      537         9       180.000      15.16700    2     ; C-C-C-C, prebuilt X-ca-ca-X
   534      535      536      584         9       180.000      15.16700    2     ; C-C-C-H, prebuilt X-ca-ca-X
   534      535      538      539         9       180.000       1.88280    2     ; C-C-N-C, prebuilt X-ca-n-X
   534      535      538      586         9       180.000       1.88280    2     ; C-C-N-H, prebuilt X-ca-n-X
   535      534      533      582         9       180.000      15.16700    2     ; C-C-C-H, prebuilt X-ca-ca-X
   535      536      537      585         9       180.000      15.16700    2     ; C-C-C-H, prebuilt X-ca-ca-X
   535      538      539      540         9       180.000      10.46000    2     ; C-N-C-O, prebuilt X-c-n-X
   535      538      539      541         9       180.000      10.46000    2     ; C-N-C-C, prebuilt X-c-n-X
   536      535      534      583         9       180.000      15.16700    2     ; C-C-C-H, prebuilt X-ca-ca-X
   536      535      538      539         9       180.000       1.88280    2     ; C-C-N-C, prebuilt X-ca-n-X
   536      535      538      586         9       180.000       1.88280    2     ; C-C-N-H, prebuilt X-ca-n-X
   537      532      533      582         9       180.000      15.16700    2     ; C-C-C-H, prebuilt X-ca-ca-X
   537      536      535      538         9       180.000      15.16700    2     ; C-C-C-N, prebuilt X-ca-ca-X
   538      535      534      583         9       180.000      15.16700    2     ; N-C-C-H, prebuilt X-ca-ca-X
   538      535      536      584         9       180.000      15.16700    2     ; N-C-C-H, prebuilt X-ca-ca-X
   538      539      541      542         9       180.000       4.18400    2     ; N-C-C-C, prebuilt X-c-ca-X
   538      539      541      546         9       180.000       4.18400    2     ; N-C-C-C, prebuilt X-c-ca-X
   539      541      542      543         9       180.000      15.16700    2     ; C-C-C-C, prebuilt X-ca-ca-X
   539      541      542      587         9       180.000      15.16700    2     ; C-C-C-H, prebuilt X-ca-ca-X
   539      541      546      545         9       180.000      15.16700    2     ; C-C-C-C, prebuilt X-ca-ca-X
   539      541      546      590         9       180.000      15.16700    2     ; C-C-C-H, prebuilt X-ca-ca-X
   540      539      538      586         9       180.000      10.46000    2     ; O-C-N-H, prebuilt hn-n-c-o
   540      539      538      586         9         0.000       8.36800    1     ; O-C-N-H, prebuilt hn-n-c-o
   540      539      541      542         9       180.000       4.18400    2     ; O-C-C-C, prebuilt X-c-ca-X
   540      539      541      546         9       180.000       4.18400    2     ; O-C-C-C, prebuilt X-c-ca-X
   541      539      538      586         9       180.000      10.46000    2     ; C-C-N-H, prebuilt X-c-n-X
   541      542      543      544         9       180.000      15.16700    2     ; C-C-C-C, prebuilt X-ca-ca-X
   541      542      543      588         9       180.000      15.16700    2     ; C-C-C-H, prebuilt X-ca-ca-X
   541      546      545      544         9       180.000      15.16700    2     ; C-C-C-C, prebuilt X-ca-ca-X
   541      546      545      589         9       180.000      15.16700    2     ; C-C-C-H, prebuilt X-ca-ca-X
   542      541      546      545         9       180.000      15.16700    2     ; C-C-C-C, prebuilt X-ca-ca-X
   542      541      546      590         9       180.000      15.16700    2     ; C-C-C-H, prebuilt X-ca-ca-X
   542      543      544      545         9       180.000      15.16700    2     ; C-C-C-C, prebuilt X-ca-ca-X
   542      543      544      547         9       180.000      15.16700    2     ; C-C-C-N, prebuilt X-ca-ca-X
   543      542      541      546         9       180.000      15.16700    2     ; C-C-C-C, prebuilt X-ca-ca-X
   543      544      545      546         9       180.000      15.16700    2     ; C-C-C-C, prebuilt X-ca-ca-X
   543      544      545      589         9       180.000      15.16700    2     ; C-C-C-H, prebuilt X-ca-ca-X
   543      544      547      548         9       180.000       1.88280    2     ; C-C-N-C, prebuilt X-ca-n-X
   543      544      547      552         9       180.000       1.88280    2     ; C-C-N-C, prebuilt X-ca-n-X
   544      543      542      587         9       180.000      15.16700    2     ; C-C-C-H, prebuilt X-ca-ca-X
   544      545      546      590         9       180.000      15.16700    2     ; C-C-C-H, prebuilt X-ca-ca-X
   544      547      548      549         9       180.000      10.46000    2     ; C-N-C-O, prebuilt X-c-n-X
   544      547      548      550         9       180.000      10.46000    2     ; C-N-C-C, prebuilt X-c-n-X
   544      547      552      551         9       180.000      10.46000    2     ; C-N-C-C, prebuilt X-c-n-X
   544      547      552      553         9       180.000      10.46000    2     ; C-N-C-O, prebuilt X-c-n-X
   545      544      543      588         9       180.000      15.16700    2     ; C-C-C-H, prebuilt X-ca-ca-X
   545      544      547      548         9       180.000       1.88280    2     ; C-C-N-C, prebuilt X-ca-n-X
   545      544      547      552         9       180.000       1.88280    2     ; C-C-N-C, prebuilt X-ca-n-X
   546      541      542      587         9       180.000      15.16700    2     ; C-C-C-H, prebuilt X-ca-ca-X
   546      545      544      547         9       180.000      15.16700    2     ; C-C-C-N, prebuilt X-ca-ca-X
   547      544      543      588         9       180.000      15.16700    2     ; N-C-C-H, prebuilt X-ca-ca-X
   547      544      545      589         9       180.000      15.16700    2     ; N-C-C-H, prebuilt X-ca-ca-X
   547      548      550      551         9       180.000       4.18400    2     ; N-C-C-C, prebuilt X-c-ca-X
   547      548      550      557         9       180.000       4.18400    2     ; N-C-C-C, prebuilt X-c-ca-X
   547      552      551      550         9       180.000       4.18400    2     ; N-C-C-C, prebuilt X-c-ca-X
   547      552      551      554         9       180.000       4.18400    2     ; N-C-C-C, prebuilt X-c-ca-X
   548      547      552      551         9       180.000      10.46000    2     ; C-N-C-C, prebuilt X-c-n-X
   548      547      552      553         9       180.000      10.46000    2     ; C-N-C-O, prebuilt X-c-n-X
   548      550      551      552         9       180.000      15.16700    2     ; C-C-C-C, prebuilt X-ca-ca-X
   548      550      551      554         9       180.000      15.16700    2     ; C-C-C-C, prebuilt X-ca-ca-X
   548      550      557      556         9       180.000      15.16700    2     ; C-C-C-C, prebuilt X-ca-ca-X
   548      550      557      593         9       180.000      15.16700    2     ; C-C-C-H, prebuilt X-ca-ca-X
   549      548      547      552         9       180.000      10.46000    2     ; O-C-N-C, prebuilt X-c-n-X
   549      548      550      551         9       180.000       4.18400    2     ; O-C-C-C, prebuilt X-c-ca-X
   549      548      550      557         9       180.000       4.18400    2     ; O-C-C-C, prebuilt X-c-ca-X
   550      548      547      552         9       180.000      10.46000    2     ; C-C-N-C, prebuilt X-c-n-X
   550      551      552      553         9       180.000       4.18400    2     ; C-C-C-O, prebuilt X-c-ca-X
   550      551      554      555         9       180.000      15.16700    2     ; C-C-C-C, prebuilt X-ca-ca-X
   550      551      554      591         9       180.000      15.16700    2     ; C-C-C-H, prebuilt X-ca-ca-X
   550      557      556      555         9       180.000      15.16700    2     ; C-C-C-C, prebuilt X-ca-ca-X
   550      557      556      592         9       180.000      15.16700    2     ; C-C-C-H, prebuilt X-ca-ca-X
   551      550      557      556         9       180.000      15.16700    2     ; C-C-C-C, prebuilt X-ca-ca-X
   551      550      557      593         9       180.000      15.16700    2     ; C-C-C-H, prebuilt X-ca-ca-X
   551      554      555      556         9       180.000      15.16700    2     ; C-C-C-C, prebuilt X-ca-cp-X
   551      554      555      597         9       180.000      15.16700    2     ; C-C-C-C, prebuilt X-ca-cp-X
   552      551      550      557         9       180.000      15.16700    2     ; C-C-C-C, prebuilt X-ca-ca-X
   552      551      554      555         9       180.000      15.16700    2     ; C-C-C-C, prebuilt X-ca-ca-X
   552      551      554      591         9       180.000      15.16700    2     ; C-C-C-H, prebuilt X-ca-ca-X
   553      552      551      554         9       180.000       4.18400    2     ; O-C-C-C, prebuilt X-c-ca-X
   554      551      550      557         9       180.000      15.16700    2     ; C-C-C-C, prebuilt X-ca-ca-X
   554      555      556      557         9       180.000      15.16700    2     ; C-C-C-C, prebuilt X-ca-cp-X
   554      555      556      592         9       180.000      15.16700    2     ; C-C-C-H, prebuilt X-ca-cp-X
   554      555      597      598         9       180.000       4.18400    2     ; C-C-C-C, prebuilt X-cp-cp-X
   554      555      597      602         9       180.000       4.18400    2     ; C-C-C-C, prebuilt X-cp-cp-X
   555      556      557      593         9       180.000      15.16700    2     ; C-C-C-H, prebuilt X-ca-ca-X
   555      597      598      599         9       180.000      15.16700    2     ; C-C-C-C, prebuilt X-ca-cp-X
   555      597      598      678         9       180.000      15.16700    2     ; C-C-C-H, prebuilt X-ca-cp-X
   555      597      602      601         9       180.000      15.16700    2     ; C-C-C-C, prebuilt X-ca-cp-X
   555      597      602      680         9       180.000      15.16700    2     ; C-C-C-H, prebuilt X-ca-cp-X
   556      555      554      591         9       180.000      15.16700    2     ; C-C-C-H, prebuilt X-ca-cp-X
   556      555      597      598         9       180.000       4.18400    2     ; C-C-C-C, prebuilt X-cp-cp-X
   556      555      597      602         9       180.000       4.18400    2     ; C-C-C-C, prebuilt X-cp-cp-X
   557      556      555      597         9       180.000      15.16700    2     ; C-C-C-C, prebuilt X-ca-cp-X
   558      501      500      568         9       180.000      15.16700    2     ; C-C-C-H, prebuilt X-ca-ca-X
   558      501      502      569         9       180.000      15.16700    2     ; C-C-C-H, prebuilt X-ca-ca-X
   559      479      480      560         9       180.000      15.16700    2     ; H-C-C-H, prebuilt X-ca-ca-X
   562      490      491      563         9       180.000      15.16700    2     ; H-C-C-H, prebuilt X-ca-ca-X
   564      493      494      565         9       180.000      15.16700    2     ; H-C-C-H, prebuilt X-ca-ca-X
   567      499      500      568         9       180.000      15.16700    2     ; H-C-C-H, prebuilt X-ca-ca-X
   571      513      514      572         9       180.000      15.16700    2     ; H-C-C-H, prebuilt X-ca-ca-X
   574      519      520      575         9       180.000      15.16700    2     ; H-C-C-H, prebuilt X-ca-ca-X
   576      522      523      577         9       180.000      15.16700    2     ; H-C-C-H, prebuilt X-ca-ca-X
   578      526      527      579         9       180.000      15.16700    2     ; H-C-C-H, prebuilt X-ca-ca-X
   579      527      528      580         9       180.000      15.16700    2     ; H-C-C-H, prebuilt X-ca-ca-X
   580      528      529      581         9       180.000      15.16700    2     ; H-C-C-H, prebuilt X-ca-ca-X
   582      533      534      583         9       180.000      15.16700    2     ; H-C-C-H, prebuilt X-ca-ca-X
   584      536      537      585         9       180.000      15.16700    2     ; H-C-C-H, prebuilt X-ca-ca-X
   587      542      543      588         9       180.000      15.16700    2     ; H-C-C-H, prebuilt X-ca-ca-X
   589      545      546      590         9       180.000      15.16700    2     ; H-C-C-H, prebuilt X-ca-ca-X
   591      554      555      597         9       180.000      15.16700    2     ; H-C-C-C, prebuilt X-ca-cp-X
   592      556      555      597         9       180.000      15.16700    2     ; H-C-C-C, prebuilt X-ca-cp-X
   592      556      557      593         9       180.000      15.16700    2     ; H-C-C-H, prebuilt X-ca-ca-X
   597      598      599      600         9       180.000      15.16700    2     ; C-C-C-C, prebuilt X-ca-ca-X
   597      598      599      679         9       180.000      15.16700    2     ; C-C-C-H, prebuilt X-ca-ca-X
   597      602      601      600         9       180.000      15.16700    2     ; C-C-C-C, prebuilt X-ca-ca-X
   597      602      601      603         9       180.000      15.16700    2     ; C-C-C-C, prebuilt X-ca-ca-X
   598      597      602      601         9       180.000      15.16700    2     ; C-C-C-C, prebuilt X-ca-cp-X
   598      597      602      680         9       180.000      15.16700    2     ; C-C-C-H, prebuilt X-ca-cp-X
   598      599      600      601         9       180.000      15.16700    2     ; C-C-C-C, prebuilt X-ca-ca-X
   598      599      600      606         9       180.000      15.16700    2     ; C-C-C-C, prebuilt X-ca-ca-X
   599      598      597      602         9       180.000      15.16700    2     ; C-C-C-C, prebuilt X-ca-cp-X
   599      600      601      602         9       180.000      15.16700    2     ; C-C-C-C, prebuilt X-ca-ca-X
   599      600      601      603         9       180.000      15.16700    2     ; C-C-C-C, prebuilt X-ca-ca-X
   599      600      606      605         9       180.000       4.18400    2     ; C-C-C-N, prebuilt X-c-ca-X
   599      600      606      607         9       180.000       4.18400    2     ; C-C-C-O, prebuilt X-c-ca-X
   600      599      598      678         9       180.000      15.16700    2     ; C-C-C-H, prebuilt X-ca-ca-X
   600      601      602      680         9       180.000      15.16700    2     ; C-C-C-H, prebuilt X-ca-ca-X
   600      601      603      604         9       180.000       4.18400    2     ; C-C-C-O, prebuilt X-c-ca-X
   600      601      603      605         9       180.000       4.18400    2     ; C-C-C-N, prebuilt X-c-ca-X
   600      606      605      603         9       180.000      10.46000    2     ; C-C-N-C, prebuilt X-c-n-X
   600      606      605      608         9       180.000      10.46000    2     ; C-C-N-C, prebuilt X-c-n-X
   601      600      599      679         9       180.000      15.16700    2     ; C-C-C-H, prebuilt X-ca-ca-X
   601      600      606      605         9       180.000       4.18400    2     ; C-C-C-N, prebuilt X-c-ca-X
   601      600      606      607         9       180.000       4.18400    2     ; C-C-C-O, prebuilt X-c-ca-X
   601      603      605      606         9       180.000      10.46000    2     ; C-C-N-C, prebuilt X-c-n-X
   601      603      605      608         9       180.000      10.46000    2     ; C-C-N-C, prebuilt X-c-n-X
   602      597      598      678         9       180.000      15.16700    2     ; C-C-C-H, prebuilt X-ca-cp-X
   602      601      600      606         9       180.000      15.16700    2     ; C-C-C-C, prebuilt X-ca-ca-X
   602      601      603      604         9       180.000       4.18400    2     ; C-C-C-O, prebuilt X-c-ca-X
   602      601      603      605         9       180.000       4.18400    2     ; C-C-C-N, prebuilt X-c-ca-X
   603      601      600      606         9       180.000      15.16700    2     ; C-C-C-C, prebuilt X-ca-ca-X
   603      601      602      680         9       180.000      15.16700    2     ; C-C-C-H, prebuilt X-ca-ca-X
   603      605      606      607         9       180.000      10.46000    2     ; C-N-C-O, prebuilt X-c-n-X
   603      605      608      609         9       180.000       1.88280    2     ; C-N-C-C, prebuilt X-ca-n-X
   603      605      608      613         9       180.000       1.88280    2     ; C-N-C-C, prebuilt X-ca-n-X
   604      603      605      606         9       180.000      10.46000    2     ; O-C-N-C, prebuilt X-c-n-X
   604      603      605      608         9       180.000      10.46000    2     ; O-C-N-C, prebuilt X-c-n-X
   605      608      609      610         9       180.000      15.16700    2     ; N-C-C-C, prebuilt X-ca-ca-X
   605      608      609      681         9       180.000      15.16700    2     ; N-C-C-H, prebuilt X-ca-ca-X
   605      608      613      612         9       180.000      15.16700    2     ; N-C-C-C, prebuilt X-ca-ca-X
   605      608      613      684         9       180.000      15.16700    2     ; N-C-C-H, prebuilt X-ca-ca-X
   606      600      599      679         9       180.000      15.16700    2     ; C-C-C-H, prebuilt X-ca-ca-X
   606      605      608      609         9       180.000       1.88280    2     ; C-N-C-C, prebuilt X-ca-n-X
   606      605      608      613         9       180.000       1.88280    2     ; C-N-C-C, prebuilt X-ca-n-X
   607      606      605      608         9       180.000      10.46000    2     ; O-C-N-C, prebuilt X-c-n-X
   608      609      610      611         9       180.000      15.16700    2     ; C-C-C-C, prebuilt X-ca-ca-X
   608      609      610      682         9       180.000      15.16700    2     ; C-C-C-H, prebuilt X-ca-ca-X
   608      613      612      611         9       180.000      15.16700    2     ; C-C-C-C, prebuilt X-ca-ca-X
   608      613      612      683         9       180.000      15.16700    2     ; C-C-C-H, prebuilt X-ca-ca-X
   609      608      613      612         9       180.000      15.16700    2     ; C-C-C-C, prebuilt X-ca-ca-X
   609      608      613      684         9       180.000      15.16700    2     ; C-C-C-H, prebuilt X-ca-ca-X
   609      610      611      612         9       180.000      15.16700    2     ; C-C-C-C, prebuilt X-ca-ca-X
   609      610      611      614         9       180.000      15.16700    2     ; C-C-C-N, prebuilt X-ca-ca-X
   610      609      608      613         9       180.000      15.16700    2     ; C-C-C-C, prebuilt X-ca-ca-X
   610      611      612      613         9       180.000      15.16700    2     ; C-C-C-C, prebuilt X-ca-ca-X
   610      611      612      683         9       180.000      15.16700    2     ; C-C-C-H, prebuilt X-ca-ca-X
   610      611      614      615         9       180.000       1.88280    2     ; C-C-N-C, prebuilt X-ca-n-X
   610      611      614      685         9       180.000       1.88280    2     ; C-C-N-H, prebuilt X-ca-n-X
   611      610      609      681         9       180.000      15.16700    2     ; C-C-C-H, prebuilt X-ca-ca-X
   611      612      613      684         9       180.000      15.16700    2     ; C-C-C-H, prebuilt X-ca-ca-X
   611      614      615      616         9       180.000      10.46000    2     ; C-N-C-O, prebuilt X-c-n-X
   611      614      615      617         9       180.000      10.46000    2     ; C-N-C-C, prebuilt X-c-n-X
   612      611      610      682         9       180.000      15.16700    2     ; C-C-C-H, prebuilt X-ca-ca-X
   612      611      614      615         9       180.000       1.88280    2     ; C-C-N-C, prebuilt X-ca-n-X
   612      611      614      685         9       180.000       1.88280    2     ; C-C-N-H, prebuilt X-ca-n-X
   613      608      609      681         9       180.000      15.16700    2     ; C-C-C-H, prebuilt X-ca-ca-X
   613      612      611      614         9       180.000      15.16700    2     ; C-C-C-N, prebuilt X-ca-ca-X
   614      611      610      682         9       180.000      15.16700    2     ; N-C-C-H, prebuilt X-ca-ca-X
   614      611      612      683         9       180.000      15.16700    2     ; N-C-C-H, prebuilt X-ca-ca-X
   614      615      617      618         9       180.000       4.18400    2     ; N-C-C-C, prebuilt X-c-ca-X
   614      615      617      622         9       180.000       4.18400    2     ; N-C-C-C, prebuilt X-c-ca-X
   615      617      618      619         9       180.000      15.16700    2     ; C-C-C-C, prebuilt X-ca-ca-X
   615      617      618      686         9       180.000      15.16700    2     ; C-C-C-H, prebuilt X-ca-ca-X
   615      617      622      621         9       180.000      15.16700    2     ; C-C-C-C, prebuilt X-ca-ca-X
   615      617      622      623         9       180.000      15.16700    2     ; C-C-C-N, prebuilt X-ca-ca-X
   616      615      614      685         9       180.000      10.46000    2     ; O-C-N-H, prebuilt hn-n-c-o
   616      615      614      685         9         0.000       8.36800    1     ; O-C-N-H, prebuilt hn-n-c-o
   616      615      617      618         9       180.000       4.18400    2     ; O-C-C-C, prebuilt X-c-ca-X
   616      615      617      622         9       180.000       4.18400    2     ; O-C-C-C, prebuilt X-c-ca-X
   617      615      614      685         9       180.000      10.46000    2     ; C-C-N-H, prebuilt X-c-n-X
   617      618      619      620         9       180.000      15.16700    2     ; C-C-C-C, prebuilt X-ca-ca-X
   617      618      619      687         9       180.000      15.16700    2     ; C-C-C-H, prebuilt X-ca-ca-X
   617      622      621      620         9       180.000      15.16700    2     ; C-C-C-C, prebuilt X-ca-ca-X
   617      622      621      688         9       180.000      15.16700    2     ; C-C-C-H, prebuilt X-ca-ca-X
   617      622      623      624         9       180.000       1.88280    2     ; C-C-N-C, prebuilt X-ca-n-X
   617      622      623      628         9       180.000       1.88280    2     ; C-C-N-C, prebuilt X-ca-n-X
   618      617      622      621         9       180.000      15.16700    2     ; C-C-C-C, prebuilt X-ca-ca-X
   618      617      622      623         9       180.000      15.16700    2     ; C-C-C-N, prebuilt X-ca-ca-X
   618      619      620      621         9       180.000      15.16700    2     ; C-C-C-C, prebuilt X-ca-ca-X
   618      619      620      677         9       180.000      15.16700    2     ; C-C-C-C, prebuilt X-ca-ca-X
   619      618      617      622         9       180.000      15.16700    2     ; C-C-C-C, prebuilt X-ca-ca-X
   619      620      621      622         9       180.000      15.16700    2     ; C-C-C-C, prebuilt X-ca-ca-X
   619      620      621      688         9       180.000      15.16700    2     ; C-C-C-H, prebuilt X-ca-ca-X
   619      620      677      713         9         0.000       0.00000    2     ; C-C-C-H, prebuilt X-c3-ca-X
   619      620      677      714         9         0.000       0.00000    2     ; C-C-C-H, prebuilt X-c3-ca-X
   619      620      677      715         9         0.000       0.00000    2     ; C-C-C-H, prebuilt X-c3-ca-X
   620      619      618      686         9       180.000      15.16700    2     ; C-C-C-H, prebuilt X-ca-ca-X
   620      621      622      623         9       180.000      15.16700    2     ; C-C-C-N, prebuilt X-ca-ca-X
   621      620      619      687         9       180.000      15.16700    2     ; C-C-C-H, prebuilt X-ca-ca-X
   621      620      677      713         9         0.000       0.00000    2     ; C-C-C-H, prebuilt X-c3-ca-X
   621      620      677      714         9         0.000       0.00000    2     ; C-C-C-H, prebuilt X-c3-ca-X
   621      620      677      715         9         0.000       0.00000    2     ; C-C-C-H, prebuilt X-c3-ca-X
   621      622      623      624         9       180.000       1.88280    2     ; C-C-N-C, prebuilt X-ca-n-X
   621      622      623      628         9       180.000       1.88280    2     ; C-C-N-C, prebuilt X-ca-n-X
   622      617      618      686         9       180.000      15.16700    2     ; C-C-C-H, prebuilt X-ca-ca-X
   622      621      620      677         9       180.000      15.16700    2     ; C-C-C-C, prebuilt X-ca-ca-X
   622      623      624      625         9       180.000      10.46000    2     ; C-N-C-O, prebuilt X-c-n-X
   622      623      624      626         9       180.000      10.46000    2     ; C-N-C-C, prebuilt X-c-n-X
   622      623      628      627         9       180.000      10.46000    2     ; C-N-C-C, prebuilt X-c-n-X
   622      623      628      629         9       180.000      10.46000    2     ; C-N-C-O, prebuilt X-c-n-X
   623      622      621      688         9       180.000      15.16700    2     ; N-C-C-H, prebuilt X-ca-ca-X
   623      624      626      627         9       180.000       4.18400    2     ; N-C-C-C, prebuilt X-c-ca-X
   623      624      626      633         9       180.000       4.18400    2     ; N-C-C-C, prebuilt X-c-ca-X
   623      628      627      626         9       180.000       4.18400    2     ; N-C-C-C, prebuilt X-c-ca-X
   623      628      627      630         9       180.000       4.18400    2     ; N-C-C-C, prebuilt X-c-ca-X
   624      623      628      627         9       180.000      10.46000    2     ; C-N-C-C, prebuilt X-c-n-X
   624      623      628      629         9       180.000      10.46000    2     ; C-N-C-O, prebuilt X-c-n-X
   624      626      627      628         9       180.000      15.16700    2     ; C-C-C-C, prebuilt X-ca-ca-X
   624      626      627      630         9       180.000      15.16700    2     ; C-C-C-C, prebuilt X-ca-ca-X
   624      626      633      632         9       180.000      15.16700    2     ; C-C-C-C, prebuilt X-ca-ca-X
   624      626      633      691         9       180.000      15.16700    2     ; C-C-C-H, prebuilt X-ca-ca-X
   625      624      623      628         9       180.000      10.46000    2     ; O-C-N-C, prebuilt X-c-n-X
   625      624      626      627         9       180.000       4.18400    2     ; O-C-C-C, prebuilt X-c-ca-X
   625      624      626      633         9       180.000       4.18400    2     ; O-C-C-C, prebuilt X-c-ca-X
   626      624      623      628         9       180.000      10.46000    2     ; C-C-N-C, prebuilt X-c-n-X
   626      627      628      629         9       180.000       4.18400    2     ; C-C-C-O, prebuilt X-c-ca-X
   626      627      630      631         9       180.000      15.16700    2     ; C-C-C-C, prebuilt X-ca-ca-X
   626      627      630      689         9       180.000      15.16700    2     ; C-C-C-H, prebuilt X-ca-ca-X
   626      633      632      631         9       180.000      15.16700    2     ; C-C-C-C, prebuilt X-ca-ca-X
   626      633      632      690         9       180.000      15.16700    2     ; C-C-C-H, prebuilt X-ca-ca-X
   627      626      633      632         9       180.000      15.16700    2     ; C-C-C-C, prebuilt X-ca-ca-X
   627      626      633      691         9       180.000      15.16700    2     ; C-C-C-H, prebuilt X-ca-ca-X
   627      630      631      632         9       180.000      15.16700    2     ; C-C-C-C, prebuilt X-ca-ca-X
   627      630      631      634         9       180.000      15.16700    2     ; C-C-C-C, prebuilt X-ca-ca-X
   628      627      626      633         9       180.000      15.16700    2     ; C-C-C-C, prebuilt X-ca-ca-X
   628      627      630      631         9       180.000      15.16700    2     ; C-C-C-C, prebuilt X-ca-ca-X
   628      627      630      689         9       180.000      15.16700    2     ; C-C-C-H, prebuilt X-ca-ca-X
   629      628      627      630         9       180.000       4.18400    2     ; O-C-C-C, prebuilt X-c-ca-X
   630      627      626      633         9       180.000      15.16700    2     ; C-C-C-C, prebuilt X-ca-ca-X
   630      631      632      633         9       180.000      15.16700    2     ; C-C-C-C, prebuilt X-ca-ca-X
   630      631      632      690         9       180.000      15.16700    2     ; C-C-C-H, prebuilt X-ca-ca-X
   630      631      634      635         9       180.000       4.18400    2     ; C-C-C-O, prebuilt X-c-ca-X
   630      631      634      636         9       180.000       4.18400    2     ; C-C-C-N, prebuilt X-c-ca-X
   631      632      633      691         9       180.000      15.16700    2     ; C-C-C-H, prebuilt X-ca-ca-X
   631      634      636      637         9       180.000      10.46000    2     ; C-C-N-C, prebuilt X-c-n-X
   631      634      636      692         9       180.000      10.46000    2     ; C-C-N-H, prebuilt X-c-n-X
   632      631      630      689         9       180.000      15.16700    2     ; C-C-C-H, prebuilt X-ca-ca-X
   632      631      634      635         9       180.000       4.18400    2     ; C-C-C-O, prebuilt X-c-ca-X
   632      631      634      636         9       180.000       4.18400    2     ; C-C-C-N, prebuilt X-c-ca-X
   633      632      631      634         9       180.000      15.16700    2     ; C-C-C-C, prebuilt X-ca-ca-X
   634      631      630      689         9       180.000      15.16700    2     ; C-C-C-H, prebuilt X-ca-ca-X
   634      631      632      690         9       180.000      15.16700    2     ; C-C-C-H, prebuilt X-ca-ca-X
   634      636      637      638         9       180.000       1.88280    2     ; C-N-C-C, prebuilt X-ca-n-X
   634      636      637      642         9       180.000       1.88280    2     ; C-N-C-C, prebuilt X-ca-n-X
   635      634      636      637         9       180.000      10.46000    2     ; O-C-N-C, prebuilt X-c-n-X
   635      634      636      692         9       180.000      10.46000    2     ; O-C-N-H, prebuilt hn-n-c-o
   635      634      636      692         9         0.000       8.36800    1     ; O-C-N-H, prebuilt hn-n-c-o
   636      637      638      639         9       180.000      15.16700    2     ; N-C-C-C, prebuilt X-ca-ca-X
   636      637      638      693         9       180.000      15.16700    2     ; N-C-C-H, prebuilt X-ca-ca-X
   636      637      642      641         9       180.000      15.16700    2     ; N-C-C-C, prebuilt X-ca-ca-X
   636      637      642      696         9       180.000      15.16700    2     ; N-C-C-H, prebuilt X-ca-ca-X
   637      638      639      640         9       180.000      15.16700    2     ; C-C-C-C, prebuilt X-ca-ca-X
   637      638      639      694         9       180.000      15.16700    2     ; C-C-C-H, prebuilt X-ca-ca-X
   637      642      641      640         9       180.000      15.16700    2     ; C-C-C-C, prebuilt X-ca-ca-X
   637      642      641      695         9       180.000      15.16700    2     ; C-C-C-H, prebuilt X-ca-ca-X
   638      637      636      692         9       180.000       1.88280    2     ; C-C-N-H, prebuilt X-ca-n-X
   638      637      642      641         9       180.000      15.16700    2     ; C-C-C-C, prebuilt X-ca-ca-X
   638      637      642      696         9       180.000      15.16700    2     ; C-C-C-H, prebuilt X-ca-ca-X
   638      639      640      641         9       180.000      15.16700    2     ; C-C-C-C, prebuilt X-ca-ca-X
   638      639      640      643         9       180.000      15.16700    2     ; C-C-C-O, prebuilt X-ca-ca-X
   639      638      637      642         9       180.000      15.16700    2     ; C-C-C-C, prebuilt X-ca-ca-X
   639      640      641      642         9       180.000      15.16700    2     ; C-C-C-C, prebuilt X-ca-ca-X
   639      640      641      695         9       180.000      15.16700    2     ; C-C-C-H, prebuilt X-ca-ca-X
   639      640      643      644         9       180.000       3.76560    2     ; C-C-O-C, prebuilt X-ca-os-X
   640      639      638      693         9       180.000      15.16700    2     ; C-C-C-H, prebuilt X-ca-ca-X
   640      641      642      696         9       180.000      15.16700    2     ; C-C-C-H, prebuilt X-ca-ca-X
   640      643      644      645         9       180.000       3.76560    2     ; C-O-C-C, prebuilt X-ca-os-X
   640      643      644      649         9       180.000       3.76560    2     ; C-O-C-C, prebuilt X-ca-os-X
   641      640      639      694         9       180.000      15.16700    2     ; C-C-C-H, prebuilt X-ca-ca-X
   641      640      643      644         9       180.000       3.76560    2     ; C-C-O-C, prebuilt X-ca-os-X
   642      637      636      692         9       180.000       1.88280    2     ; C-C-N-H, prebuilt X-ca-n-X
   642      637      638      693         9       180.000      15.16700    2     ; C-C-C-H, prebuilt X-ca-ca-X
   642      641      640      643         9       180.000      15.16700    2     ; C-C-C-O, prebuilt X-ca-ca-X
   643      640      639      694         9       180.000      15.16700    2     ; O-C-C-H, prebuilt X-ca-ca-X
   643      640      641      695         9       180.000      15.16700    2     ; O-C-C-H, prebuilt X-ca-ca-X
   643      644      645      646         9       180.000      15.16700    2     ; O-C-C-C, prebuilt X-ca-ca-X
   643      644      645      697         9       180.000      15.16700    2     ; O-C-C-H, prebuilt X-ca-ca-X
   643      644      649      648         9       180.000      15.16700    2     ; O-C-C-C, prebuilt X-ca-ca-X
   643      644      649      650         9       180.000      15.16700    2     ; O-C-C-O, prebuilt X-ca-ca-X
   644      645      646      647         9       180.000      15.16700    2     ; C-C-C-C, prebuilt X-ca-ca-X
   644      645      646      698         9       180.000      15.16700    2     ; C-C-C-H, prebuilt X-ca-ca-X
   644      649      648      647         9       180.000      15.16700    2     ; C-C-C-C, prebuilt X-ca-ca-X
   644      649      648      700         9       180.000      15.16700    2     ; C-C-C-H, prebuilt X-ca-ca-X
   644      649      650      651         9       180.000       3.76560    2     ; C-C-O-C, prebuilt X-ca-os-X
   645      644      649      648         9       180.000      15.16700    2     ; C-C-C-C, prebuilt X-ca-ca-X
   645      644      649      650         9       180.000      15.16700    2     ; C-C-C-O, prebuilt X-ca-ca-X
   645      646      647      648         9       180.000      15.16700    2     ; C-C-C-C, prebuilt X-ca-ca-X
   645      646      647      699         9       180.000      15.16700    2     ; C-C-C-H, prebuilt X-ca-ca-X
   646      645      644      649         9       180.000      15.16700    2     ; C-C-C-C, prebuilt X-ca-ca-X
   646      647      648      649         9       180.000      15.16700    2     ; C-C-C-C, prebuilt X-ca-ca-X
   646      647      648      700         9       180.000      15.16700    2     ; C-C-C-H, prebuilt X-ca-ca-X
   647      646      645      697         9       180.000      15.16700    2     ; C-C-C-H, prebuilt X-ca-ca-X
   647      648      649      650         9       180.000      15.16700    2     ; C-C-C-O, prebuilt X-ca-ca-X
   648      647      646      698         9       180.000      15.16700    2     ; C-C-C-H, prebuilt X-ca-ca-X
   648      649      650      651         9       180.000       3.76560    2     ; C-C-O-C, prebuilt X-ca-os-X
   649      644      645      697         9       180.000      15.16700    2     ; C-C-C-H, prebuilt X-ca-ca-X
   649      648      647      699         9       180.000      15.16700    2     ; C-C-C-H, prebuilt X-ca-ca-X
   649      650      651      652         9       180.000       3.76560    2     ; C-O-C-C, prebuilt X-ca-os-X
   649      650      651      656         9       180.000       3.76560    2     ; C-O-C-C, prebuilt X-ca-os-X
   650      649      648      700         9       180.000      15.16700    2     ; O-C-C-H, prebuilt X-ca-ca-X
   650      651      652      653         9       180.000      15.16700    2     ; O-C-C-C, prebuilt X-ca-ca-X
   650      651      652      701         9       180.000      15.16700    2     ; O-C-C-H, prebuilt X-ca-ca-X
   650      651      656      655         9       180.000      15.16700    2     ; O-C-C-C, prebuilt X-ca-ca-X
   650      651      656      704         9       180.000      15.16700    2     ; O-C-C-H, prebuilt X-ca-ca-X
   651      652      653      654         9       180.000      15.16700    2     ; C-C-C-C, prebuilt X-ca-ca-X
   651      652      653      702         9       180.000      15.16700    2     ; C-C-C-H, prebuilt X-ca-ca-X
   651      656      655      654         9       180.000      15.16700    2     ; C-C-C-C, prebuilt X-ca-ca-X
   651      656      655      703         9       180.000      15.16700    2     ; C-C-C-H, prebuilt X-ca-ca-X
   652      651      656      655         9       180.000      15.16700    2     ; C-C-C-C, prebuilt X-ca-ca-X
   652      651      656      704         9       180.000      15.16700    2     ; C-C-C-H, prebuilt X-ca-ca-X
   652      653      654      655         9       180.000      15.16700    2     ; C-C-C-C, prebuilt X-ca-ca-X
   652      653      654      657         9       180.000      15.16700    2     ; C-C-C-N, prebuilt X-ca-ca-X
   653      652      651      656         9       180.000      15.16700    2     ; C-C-C-C, prebuilt X-ca-ca-X
   653      654      655      656         9       180.000      15.16700    2     ; C-C-C-C, prebuilt X-ca-ca-X
   653      654      655      703         9       180.000      15.16700    2     ; C-C-C-H, prebuilt X-ca-ca-X
   653      654      657      658         9       180.000       1.88280    2     ; C-C-N-C, prebuilt X-ca-n-X
   653      654      657      705         9       180.000       1.88280    2     ; C-C-N-H, prebuilt X-ca-n-X
   654      653      652      701         9       180.000      15.16700    2     ; C-C-C-H, prebuilt X-ca-ca-X
   654      655      656      704         9       180.000      15.16700    2     ; C-C-C-H, prebuilt X-ca-ca-X
   654      657      658      659         9       180.000      10.46000    2     ; C-N-C-O, prebuilt X-c-n-X
   654      657      658      660         9       180.000      10.46000    2     ; C-N-C-C, prebuilt X-c-n-X
   655      654      653      702         9       180.000      15.16700    2     ; C-C-C-H, prebuilt X-ca-ca-X
   655      654      657      658         9       180.000       1.88280    2     ; C-C-N-C, prebuilt X-ca-n-X
   655      654      657      705         9       180.000       1.88280    2     ; C-C-N-H, prebuilt X-ca-n-X
   656      651      652      701         9       180.000      15.16700    2     ; C-C-C-H, prebuilt X-ca-ca-X
   656      655      654      657         9       180.000      15.16700    2     ; C-C-C-N, prebuilt X-ca-ca-X
   657      654      653      702         9       180.000      15.16700    2     ; N-C-C-H, prebuilt X-ca-ca-X
   657      654      655      703         9       180.000      15.16700    2     ; N-C-C-H, prebuilt X-ca-ca-X
   657      658      660      661         9       180.000       4.18400    2     ; N-C-C-C, prebuilt X-c-ca-X
   657      658      660      665         9       180.000       4.18400    2     ; N-C-C-C, prebuilt X-c-ca-X
   658      660      661      662         9       180.000      15.16700    2     ; C-C-C-C, prebuilt X-ca-ca-X
   658      660      661      706         9       180.000      15.16700    2     ; C-C-C-H, prebuilt X-ca-ca-X
   658      660      665      664         9       180.000      15.16700    2     ; C-C-C-C, prebuilt X-ca-ca-X
   658      660      665      709         9       180.000      15.16700    2     ; C-C-C-H, prebuilt X-ca-ca-X
   659      658      657      705         9       180.000      10.46000    2     ; O-C-N-H, prebuilt hn-n-c-o
   659      658      657      705         9         0.000       8.36800    1     ; O-C-N-H, prebuilt hn-n-c-o
   659      658      660      661         9       180.000       4.18400    2     ; O-C-C-C, prebuilt X-c-ca-X
   659      658      660      665         9       180.000       4.18400    2     ; O-C-C-C, prebuilt X-c-ca-X
   660      658      657      705         9       180.000      10.46000    2     ; C-C-N-H, prebuilt X-c-n-X
   660      661      662      663         9       180.000      15.16700    2     ; C-C-C-C, prebuilt X-ca-ca-X
   660      661      662      707         9       180.000      15.16700    2     ; C-C-C-H, prebuilt X-ca-ca-X
   660      665      664      663         9       180.000      15.16700    2     ; C-C-C-C, prebuilt X-ca-ca-X
   660      665      664      708         9       180.000      15.16700    2     ; C-C-C-H, prebuilt X-ca-ca-X
   661      660      665      664         9       180.000      15.16700    2     ; C-C-C-C, prebuilt X-ca-ca-X
   661      660      665      709         9       180.000      15.16700    2     ; C-C-C-H, prebuilt X-ca-ca-X
   661      662      663      664         9       180.000      15.16700    2     ; C-C-C-C, prebuilt X-ca-ca-X
   661      662      663      666         9       180.000      15.16700    2     ; C-C-C-N, prebuilt X-ca-ca-X
   662      661      660      665         9       180.000      15.16700    2     ; C-C-C-C, prebuilt X-ca-ca-X
   662      663      664      665         9       180.000      15.16700    2     ; C-C-C-C, prebuilt X-ca-ca-X
   662      663      664      708         9       180.000      15.16700    2     ; C-C-C-H, prebuilt X-ca-ca-X
   662      663      666      667         9       180.000       1.88280    2     ; C-C-N-C, prebuilt X-ca-n-X
   662      663      666      671         9       180.000       1.88280    2     ; C-C-N-C, prebuilt X-ca-n-X
   663      662      661      706         9       180.000      15.16700    2     ; C-C-C-H, prebuilt X-ca-ca-X
   663      664      665      709         9       180.000      15.16700    2     ; C-C-C-H, prebuilt X-ca-ca-X
   663      666      667      668         9       180.000      10.46000    2     ; C-N-C-O, prebuilt X-c-n-X
   663      666      667      669         9       180.000      10.46000    2     ; C-N-C-C, prebuilt X-c-n-X
   663      666      671      670         9       180.000      10.46000    2     ; C-N-C-C, prebuilt X-c-n-X
   663      666      671      672         9       180.000      10.46000    2     ; C-N-C-O, prebuilt X-c-n-X
   664      663      662      707         9       180.000      15.16700    2     ; C-C-C-H, prebuilt X-ca-ca-X
   664      663      666      667         9       180.000       1.88280    2     ; C-C-N-C, prebuilt X-ca-n-X
   664      663      666      671         9       180.000       1.88280    2     ; C-C-N-C, prebuilt X-ca-n-X
   665      660      661      706         9       180.000      15.16700    2     ; C-C-C-H, prebuilt X-ca-ca-X
   665      664      663      666         9       180.000      15.16700    2     ; C-C-C-N, prebuilt X-ca-ca-X
   666      663      662      707         9       180.000      15.16700    2     ; N-C-C-H, prebuilt X-ca-ca-X
   666      663      664      708         9       180.000      15.16700    2     ; N-C-C-H, prebuilt X-ca-ca-X
   666      667      669      670         9       180.000       4.18400    2     ; N-C-C-C, prebuilt X-c-ca-X
   666      667      669      676         9       180.000       4.18400    2     ; N-C-C-C, prebuilt X-c-ca-X
   666      671      670      669         9       180.000       4.18400    2     ; N-C-C-C, prebuilt X-c-ca-X
   666      671      670      673         9       180.000       4.18400    2     ; N-C-C-C, prebuilt X-c-ca-X
   667      666      671      670         9       180.000      10.46000    2     ; C-N-C-C, prebuilt X-c-n-X
   667      666      671      672         9       180.000      10.46000    2     ; C-N-C-O, prebuilt X-c-n-X
   667      669      670      671         9       180.000      15.16700    2     ; C-C-C-C, prebuilt X-ca-ca-X
   667      669      670      673         9       180.000      15.16700    2     ; C-C-C-C, prebuilt X-ca-ca-X
   667      669      676      675         9       180.000      15.16700    2     ; C-C-C-C, prebuilt X-ca-ca-X
   667      669      676      712         9       180.000      15.16700    2     ; C-C-C-H, prebuilt X-ca-ca-X
   668      667      666      671         9       180.000      10.46000    2     ; O-C-N-C, prebuilt X-c-n-X
   668      667      669      670         9       180.000       4.18400    2     ; O-C-C-C, prebuilt X-c-ca-X
   668      667      669      676         9       180.000       4.18400    2     ; O-C-C-C, prebuilt X-c-ca-X
   669      667      666      671         9       180.000      10.46000    2     ; C-C-N-C, prebuilt X-c-n-X
   669      670      671      672         9       180.000       4.18400    2     ; C-C-C-O, prebuilt X-c-ca-X
   669      670      673      674         9       180.000      15.16700    2     ; C-C-C-C, prebuilt X-ca-ca-X
   669      670      673      710         9       180.000      15.16700    2     ; C-C-C-H, prebuilt X-ca-ca-X
   669      676      675      674         9       180.000      15.16700    2     ; C-C-C-C, prebuilt X-ca-ca-X
   669      676      675      711         9       180.000      15.16700    2     ; C-C-C-H, prebuilt X-ca-ca-X
   670      669      676      675         9       180.000      15.16700    2     ; C-C-C-C, prebuilt X-ca-ca-X
   670      669      676      712         9       180.000      15.16700    2     ; C-C-C-H, prebuilt X-ca-ca-X
   670      673      674      675         9       180.000      15.16700    2     ; C-C-C-C, prebuilt X-ca-cp-X
   670      673      674      716         9       180.000      15.16700    2     ; C-C-C-C, prebuilt X-ca-cp-X
   671      670      669      676         9       180.000      15.16700    2     ; C-C-C-C, prebuilt X-ca-ca-X
   671      670      673      674         9       180.000      15.16700    2     ; C-C-C-C, prebuilt X-ca-ca-X
   671      670      673      710         9       180.000      15.16700    2     ; C-C-C-H, prebuilt X-ca-ca-X
   672      671      670      673         9       180.000       4.18400    2     ; O-C-C-C, prebuilt X-c-ca-X
   673      670      669      676         9       180.000      15.16700    2     ; C-C-C-C, prebuilt X-ca-ca-X
   673      674      675      676         9       180.000      15.16700    2     ; C-C-C-C, prebuilt X-ca-cp-X
   673      674      675      711         9       180.000      15.16700    2     ; C-C-C-H, prebuilt X-ca-cp-X
   673      674      716      717         9       180.000       4.18400    2     ; C-C-C-C, prebuilt X-cp-cp-X
   673      674      716      721         9       180.000       4.18400    2     ; C-C-C-C, prebuilt X-cp-cp-X
   674      675      676      712         9       180.000      15.16700    2     ; C-C-C-H, prebuilt X-ca-ca-X
   674      716      717      718         9       180.000      15.16700    2     ; C-C-C-C, prebuilt X-ca-cp-X
   674      716      717      797         9       180.000      15.16700    2     ; C-C-C-H, prebuilt X-ca-cp-X
   674      716      721      720         9       180.000      15.16700    2     ; C-C-C-C, prebuilt X-ca-cp-X
   674      716      721      799         9       180.000      15.16700    2     ; C-C-C-H, prebuilt X-ca-cp-X
   675      674      673      710         9       180.000      15.16700    2     ; C-C-C-H, prebuilt X-ca-cp-X
   675      674      716      717         9       180.000       4.18400    2     ; C-C-C-C, prebuilt X-cp-cp-X
   675      674      716      721         9       180.000       4.18400    2     ; C-C-C-C, prebuilt X-cp-cp-X
   676      675      674      716         9       180.000      15.16700    2     ; C-C-C-C, prebuilt X-ca-cp-X
   677      620      619      687         9       180.000      15.16700    2     ; C-C-C-H, prebuilt X-ca-ca-X
   677      620      621      688         9       180.000      15.16700    2     ; C-C-C-H, prebuilt X-ca-ca-X
   678      598      599      679         9       180.000      15.16700    2     ; H-C-C-H, prebuilt X-ca-ca-X
   681      609      610      682         9       180.000      15.16700    2     ; H-C-C-H, prebuilt X-ca-ca-X
   683      612      613      684         9       180.000      15.16700    2     ; H-C-C-H, prebuilt X-ca-ca-X
   686      618      619      687         9       180.000      15.16700    2     ; H-C-C-H, prebuilt X-ca-ca-X
   690      632      633      691         9       180.000      15.16700    2     ; H-C-C-H, prebuilt X-ca-ca-X
   693      638      639      694         9       180.000      15.16700    2     ; H-C-C-H, prebuilt X-ca-ca-X
   695      641      642      696         9       180.000      15.16700    2     ; H-C-C-H, prebuilt X-ca-ca-X
   697      645      646      698         9       180.000      15.16700    2     ; H-C-C-H, prebuilt X-ca-ca-X
   698      646      647      699         9       180.000      15.16700    2     ; H-C-C-H, prebuilt X-ca-ca-X
   699      647      648      700         9       180.000      15.16700    2     ; H-C-C-H, prebuilt X-ca-ca-X
   701      652      653      702         9       180.000      15.16700    2     ; H-C-C-H, prebuilt X-ca-ca-X
   703      655      656      704         9       180.000      15.16700    2     ; H-C-C-H, prebuilt X-ca-ca-X
   706      661      662      707         9       180.000      15.16700    2     ; H-C-C-H, prebuilt X-ca-ca-X
   708      664      665      709         9       180.000      15.16700    2     ; H-C-C-H, prebuilt X-ca-ca-X
   710      673      674      716         9       180.000      15.16700    2     ; H-C-C-C, prebuilt X-ca-cp-X
   711      675      674      716         9       180.000      15.16700    2     ; H-C-C-C, prebuilt X-ca-cp-X
   711      675      676      712         9       180.000      15.16700    2     ; H-C-C-H, prebuilt X-ca-ca-X
   716      717      718      719         9       180.000      15.16700    2     ; C-C-C-C, prebuilt X-ca-ca-X
   716      717      718      798         9       180.000      15.16700    2     ; C-C-C-H, prebuilt X-ca-ca-X
   716      721      720      719         9       180.000      15.16700    2     ; C-C-C-C, prebuilt X-ca-ca-X
   716      721      720      722         9       180.000      15.16700    2     ; C-C-C-C, prebuilt X-ca-ca-X
   717      716      721      720         9       180.000      15.16700    2     ; C-C-C-C, prebuilt X-ca-cp-X
   717      716      721      799         9       180.000      15.16700    2     ; C-C-C-H, prebuilt X-ca-cp-X
   717      718      719      720         9       180.000      15.16700    2     ; C-C-C-C, prebuilt X-ca-ca-X
   717      718      719      725         9       180.000      15.16700    2     ; C-C-C-C, prebuilt X-ca-ca-X
   718      717      716      721         9       180.000      15.16700    2     ; C-C-C-C, prebuilt X-ca-cp-X
   718      719      720      721         9       180.000      15.16700    2     ; C-C-C-C, prebuilt X-ca-ca-X
   718      719      720      722         9       180.000      15.16700    2     ; C-C-C-C, prebuilt X-ca-ca-X
   718      719      725      724         9       180.000       4.18400    2     ; C-C-C-N, prebuilt X-c-ca-X
   718      719      725      726         9       180.000       4.18400    2     ; C-C-C-O, prebuilt X-c-ca-X
   719      718      717      797         9       180.000      15.16700    2     ; C-C-C-H, prebuilt X-ca-ca-X
   719      720      721      799         9       180.000      15.16700    2     ; C-C-C-H, prebuilt X-ca-ca-X
   719      720      722      723         9       180.000       4.18400    2     ; C-C-C-O, prebuilt X-c-ca-X
   719      720      722      724         9       180.000       4.18400    2     ; C-C-C-N, prebuilt X-c-ca-X
   719      725      724      722         9       180.000      10.46000    2     ; C-C-N-C, prebuilt X-c-n-X
   719      725      724      727         9       180.000      10.46000    2     ; C-C-N-C, prebuilt X-c-n-X
   720      719      718      798         9       180.000      15.16700    2     ; C-C-C-H, prebuilt X-ca-ca-X
   720      719      725      724         9       180.000       4.18400    2     ; C-C-C-N, prebuilt X-c-ca-X
   720      719      725      726         9       180.000       4.18400    2     ; C-C-C-O, prebuilt X-c-ca-X
   720      722      724      725         9       180.000      10.46000    2     ; C-C-N-C, prebuilt X-c-n-X
   720      722      724      727         9       180.000      10.46000    2     ; C-C-N-C, prebuilt X-c-n-X
   721      716      717      797         9       180.000      15.16700    2     ; C-C-C-H, prebuilt X-ca-cp-X
   721      720      719      725         9       180.000      15.16700    2     ; C-C-C-C, prebuilt X-ca-ca-X
   721      720      722      723         9       180.000       4.18400    2     ; C-C-C-O, prebuilt X-c-ca-X
   721      720      722      724         9       180.000       4.18400    2     ; C-C-C-N, prebuilt X-c-ca-X
   722      720      719      725         9       180.000      15.16700    2     ; C-C-C-C, prebuilt X-ca-ca-X
   722      720      721      799         9       180.000      15.16700    2     ; C-C-C-H, prebuilt X-ca-ca-X
   722      724      725      726         9       180.000      10.46000    2     ; C-N-C-O, prebuilt X-c-n-X
   722      724      727      728         9       180.000       1.88280    2     ; C-N-C-C, prebuilt X-ca-n-X
   722      724      727      732         9       180.000       1.88280    2     ; C-N-C-C, prebuilt X-ca-n-X
   723      722      724      725         9       180.000      10.46000    2     ; O-C-N-C, prebuilt X-c-n-X
   723      722      724      727         9       180.000      10.46000    2     ; O-C-N-C, prebuilt X-c-n-X
   724      727      728      729         9       180.000      15.16700    2     ; N-C-C-C, prebuilt X-ca-ca-X
   724      727      728      800         9       180.000      15.16700    2     ; N-C-C-H, prebuilt X-ca-ca-X
   724      727      732      731         9       180.000      15.16700    2     ; N-C-C-C, prebuilt X-ca-ca-X
   724      727      732      803         9       180.000      15.16700    2     ; N-C-C-H, prebuilt X-ca-ca-X
   725      719      718      798         9       180.000      15.16700    2     ; C-C-C-H, prebuilt X-ca-ca-X
   725      724      727      728         9       180.000       1.88280    2     ; C-N-C-C, prebuilt X-ca-n-X
   725      724      727      732         9       180.000       1.88280    2     ; C-N-C-C, prebuilt X-ca-n-X
   726      725      724      727         9       180.000      10.46000    2     ; O-C-N-C, prebuilt X-c-n-X
   727      728      729      730         9       180.000      15.16700    2     ; C-C-C-C, prebuilt X-ca-ca-X
   727      728      729      801         9       180.000      15.16700    2     ; C-C-C-H, prebuilt X-ca-ca-X
   727      732      731      730         9       180.000      15.16700    2     ; C-C-C-C, prebuilt X-ca-ca-X
   727      732      731      802         9       180.000      15.16700    2     ; C-C-C-H, prebuilt X-ca-ca-X
   728      727      732      731         9       180.000      15.16700    2     ; C-C-C-C, prebuilt X-ca-ca-X
   728      727      732      803         9       180.000      15.16700    2     ; C-C-C-H, prebuilt X-ca-ca-X
   728      729      730      731         9       180.000      15.16700    2     ; C-C-C-C, prebuilt X-ca-ca-X
   728      729      730      733         9       180.000      15.16700    2     ; C-C-C-N, prebuilt X-ca-ca-X
   729      728      727      732         9       180.000      15.16700    2     ; C-C-C-C, prebuilt X-ca-ca-X
   729      730      731      732         9       180.000      15.16700    2     ; C-C-C-C, prebuilt X-ca-ca-X
   729      730      731      802         9       180.000      15.16700    2     ; C-C-C-H, prebuilt X-ca-ca-X
   729      730      733      734         9       180.000       1.88280    2     ; C-C-N-C, prebuilt X-ca-n-X
   729      730      733      804         9       180.000       1.88280    2     ; C-C-N-H, prebuilt X-ca-n-X
   730      729      728      800         9       180.000      15.16700    2     ; C-C-C-H, prebuilt X-ca-ca-X
   730      731      732      803         9       180.000      15.16700    2     ; C-C-C-H, prebuilt X-ca-ca-X
   730      733      734      735         9       180.000      10.46000    2     ; C-N-C-O, prebuilt X-c-n-X
   730      733      734      736         9       180.000      10.46000    2     ; C-N-C-C, prebuilt X-c-n-X
   731      730      729      801         9       180.000      15.16700    2     ; C-C-C-H, prebuilt X-ca-ca-X
   731      730      733      734         9       180.000       1.88280    2     ; C-C-N-C, prebuilt X-ca-n-X
   731      730      733      804         9       180.000       1.88280    2     ; C-C-N-H, prebuilt X-ca-n-X
   732      727      728      800         9       180.000      15.16700    2     ; C-C-C-H, prebuilt X-ca-ca-X
   732      731      730      733         9       180.000      15.16700    2     ; C-C-C-N, prebuilt X-ca-ca-X
   733      730      729      801         9       180.000      15.16700    2     ; N-C-C-H, prebuilt X-ca-ca-X
   733      730      731      802         9       180.000      15.16700    2     ; N-C-C-H, prebuilt X-ca-ca-X
   733      734      736      737         9       180.000       4.18400    2     ; N-C-C-C, prebuilt X-c-ca-X
   733      734      736      741         9       180.000       4.18400    2     ; N-C-C-C, prebuilt X-c-ca-X
   734      736      737      738         9       180.000      15.16700    2     ; C-C-C-C, prebuilt X-ca-ca-X
   734      736      737      805         9       180.000      15.16700    2     ; C-C-C-H, prebuilt X-ca-ca-X
   734      736      741      740         9       180.000      15.16700    2     ; C-C-C-C, prebuilt X-ca-ca-X
   734      736      741      742         9       180.000      15.16700    2     ; C-C-C-N, prebuilt X-ca-ca-X
   735      734      733      804         9       180.000      10.46000    2     ; O-C-N-H, prebuilt hn-n-c-o
   735      734      733      804         9         0.000       8.36800    1     ; O-C-N-H, prebuilt hn-n-c-o
   735      734      736      737         9       180.000       4.18400    2     ; O-C-C-C, prebuilt X-c-ca-X
   735      734      736      741         9       180.000       4.18400    2     ; O-C-C-C, prebuilt X-c-ca-X
   736      734      733      804         9       180.000      10.46000    2     ; C-C-N-H, prebuilt X-c-n-X
   736      737      738      739         9       180.000      15.16700    2     ; C-C-C-C, prebuilt X-ca-ca-X
   736      737      738      806         9       180.000      15.16700    2     ; C-C-C-H, prebuilt X-ca-ca-X
   736      741      740      739         9       180.000      15.16700    2     ; C-C-C-C, prebuilt X-ca-ca-X
   736      741      740      807         9       180.000      15.16700    2     ; C-C-C-H, prebuilt X-ca-ca-X
   736      741      742      743         9       180.000       1.88280    2     ; C-C-N-C, prebuilt X-ca-n-X
   736      741      742      747         9       180.000       1.88280    2     ; C-C-N-C, prebuilt X-ca-n-X
   737      736      741      740         9       180.000      15.16700    2     ; C-C-C-C, prebuilt X-ca-ca-X
   737      736      741      742         9       180.000      15.16700    2     ; C-C-C-N, prebuilt X-ca-ca-X
   737      738      739      740         9       180.000      15.16700    2     ; C-C-C-C, prebuilt X-ca-ca-X
   737      738      739      796         9       180.000      15.16700    2     ; C-C-C-C, prebuilt X-ca-ca-X
   738      737      736      741         9       180.000      15.16700    2     ; C-C-C-C, prebuilt X-ca-ca-X
   738      739      740      741         9       180.000      15.16700    2     ; C-C-C-C, prebuilt X-ca-ca-X
   738      739      740      807         9       180.000      15.16700    2     ; C-C-C-H, prebuilt X-ca-ca-X
   738      739      796      832         9         0.000       0.00000    2     ; C-C-C-H, prebuilt X-c3-ca-X
   738      739      796      833         9         0.000       0.00000    2     ; C-C-C-H, prebuilt X-c3-ca-X
   738      739      796      834         9         0.000       0.00000    2     ; C-C-C-H, prebuilt X-c3-ca-X
   739      738      737      805         9       180.000      15.16700    2     ; C-C-C-H, prebuilt X-ca-ca-X
   739      740      741      742         9       180.000      15.16700    2     ; C-C-C-N, prebuilt X-ca-ca-X
   740      739      738      806         9       180.000      15.16700    2     ; C-C-C-H, prebuilt X-ca-ca-X
   740      739      796      832         9         0.000       0.00000    2     ; C-C-C-H, prebuilt X-c3-ca-X
   740      739      796      833         9         0.000       0.00000    2     ; C-C-C-H, prebuilt X-c3-ca-X
   740      739      796      834         9         0.000       0.00000    2     ; C-C-C-H, prebuilt X-c3-ca-X
   740      741      742      743         9       180.000       1.88280    2     ; C-C-N-C, prebuilt X-ca-n-X
   740      741      742      747         9       180.000       1.88280    2     ; C-C-N-C, prebuilt X-ca-n-X
   741      736      737      805         9       180.000      15.16700    2     ; C-C-C-H, prebuilt X-ca-ca-X
   741      740      739      796         9       180.000      15.16700    2     ; C-C-C-C, prebuilt X-ca-ca-X
   741      742      743      744         9       180.000      10.46000    2     ; C-N-C-O, prebuilt X-c-n-X
   741      742      743      745         9       180.000      10.46000    2     ; C-N-C-C, prebuilt X-c-n-X
   741      742      747      746         9       180.000      10.46000    2     ; C-N-C-C, prebuilt X-c-n-X
   741      742      747      748         9       180.000      10.46000    2     ; C-N-C-O, prebuilt X-c-n-X
   742      741      740      807         9       180.000      15.16700    2     ; N-C-C-H, prebuilt X-ca-ca-X
   742      743      745      746         9       180.000       4.18400    2     ; N-C-C-C, prebuilt X-c-ca-X
   742      743      745      752         9       180.000       4.18400    2     ; N-C-C-C, prebuilt X-c-ca-X
   742      747      746      745         9       180.000       4.18400    2     ; N-C-C-C, prebuilt X-c-ca-X
   742      747      746      749         9       180.000       4.18400    2     ; N-C-C-C, prebuilt X-c-ca-X
   743      742      747      746         9       180.000      10.46000    2     ; C-N-C-C, prebuilt X-c-n-X
   743      742      747      748         9       180.000      10.46000    2     ; C-N-C-O, prebuilt X-c-n-X
   743      745      746      747         9       180.000      15.16700    2     ; C-C-C-C, prebuilt X-ca-ca-X
   743      745      746      749         9       180.000      15.16700    2     ; C-C-C-C, prebuilt X-ca-ca-X
   743      745      752      751         9       180.000      15.16700    2     ; C-C-C-C, prebuilt X-ca-ca-X
   743      745      752      810         9       180.000      15.16700    2     ; C-C-C-H, prebuilt X-ca-ca-X
   744      743      742      747         9       180.000      10.46000    2     ; O-C-N-C, prebuilt X-c-n-X
   744      743      745      746         9       180.000       4.18400    2     ; O-C-C-C, prebuilt X-c-ca-X
   744      743      745      752         9       180.000       4.18400    2     ; O-C-C-C, prebuilt X-c-ca-X
   745      743      742      747         9       180.000      10.46000    2     ; C-C-N-C, prebuilt X-c-n-X
   745      746      747      748         9       180.000       4.18400    2     ; C-C-C-O, prebuilt X-c-ca-X
   745      746      749      750         9       180.000      15.16700    2     ; C-C-C-C, prebuilt X-ca-ca-X
   745      746      749      808         9       180.000      15.16700    2     ; C-C-C-H, prebuilt X-ca-ca-X
   745      752      751      750         9       180.000      15.16700    2     ; C-C-C-C, prebuilt X-ca-ca-X
   745      752      751      809         9       180.000      15.16700    2     ; C-C-C-H, prebuilt X-ca-ca-X
   746      745      752      751         9       180.000      15.16700    2     ; C-C-C-C, prebuilt X-ca-ca-X
   746      745      752      810         9       180.000      15.16700    2     ; C-C-C-H, prebuilt X-ca-ca-X
   746      749      750      751         9       180.000      15.16700    2     ; C-C-C-C, prebuilt X-ca-ca-X
   746      749      750      753         9       180.000      15.16700    2     ; C-C-C-C, prebuilt X-ca-ca-X
   747      746      745      752         9       180.000      15.16700    2     ; C-C-C-C, prebuilt X-ca-ca-X
   747      746      749      750         9       180.000      15.16700    2     ; C-C-C-C, prebuilt X-ca-ca-X
   747      746      749      808         9       180.000      15.16700    2     ; C-C-C-H, prebuilt X-ca-ca-X
   748      747      746      749         9       180.000       4.18400    2     ; O-C-C-C, prebuilt X-c-ca-X
   749      746      745      752         9       180.000      15.16700    2     ; C-C-C-C, prebuilt X-ca-ca-X
   749      750      751      752         9       180.000      15.16700    2     ; C-C-C-C, prebuilt X-ca-ca-X
   749      750      751      809         9       180.000      15.16700    2     ; C-C-C-H, prebuilt X-ca-ca-X
   749      750      753      754         9       180.000       4.18400    2     ; C-C-C-O, prebuilt X-c-ca-X
   749      750      753      755         9       180.000       4.18400    2     ; C-C-C-N, prebuilt X-c-ca-X
   750      751      752      810         9       180.000      15.16700    2     ; C-C-C-H, prebuilt X-ca-ca-X
   750      753      755      756         9       180.000      10.46000    2     ; C-C-N-C, prebuilt X-c-n-X
   750      753      755      811         9       180.000      10.46000    2     ; C-C-N-H, prebuilt X-c-n-X
   751      750      749      808         9       180.000      15.16700    2     ; C-C-C-H, prebuilt X-ca-ca-X
   751      750      753      754         9       180.000       4.18400    2     ; C-C-C-O, prebuilt X-c-ca-X
   751      750      753      755         9       180.000       4.18400    2     ; C-C-C-N, prebuilt X-c-ca-X
   752      751      750      753         9       180.000      15.16700    2     ; C-C-C-C, prebuilt X-ca-ca-X
   753      750      749      808         9       180.000      15.16700    2     ; C-C-C-H, prebuilt X-ca-ca-X
   753      750      751      809         9       180.000      15.16700    2     ; C-C-C-H, prebuilt X-ca-ca-X
   753      755      756      757         9       180.000       1.88280    2     ; C-N-C-C, prebuilt X-ca-n-X
   753      755      756      761         9       180.000       1.88280    2     ; C-N-C-C, prebuilt X-ca-n-X
   754      753      755      756         9       180.000      10.46000    2     ; O-C-N-C, prebuilt X-c-n-X
   754      753      755      811         9       180.000      10.46000    2     ; O-C-N-H, prebuilt hn-n-c-o
   754      753      755      811         9         0.000       8.36800    1     ; O-C-N-H, prebuilt hn-n-c-o
   755      756      757      758         9       180.000      15.16700    2     ; N-C-C-C, prebuilt X-ca-ca-X
   755      756      757      812         9       180.000      15.16700    2     ; N-C-C-H, prebuilt X-ca-ca-X
   755      756      761      760         9       180.000      15.16700    2     ; N-C-C-C, prebuilt X-ca-ca-X
   755      756      761      815         9       180.000      15.16700    2     ; N-C-C-H, prebuilt X-ca-ca-X
   756      757      758      759         9       180.000      15.16700    2     ; C-C-C-C, prebuilt X-ca-ca-X
   756      757      758      813         9       180.000      15.16700    2     ; C-C-C-H, prebuilt X-ca-ca-X
   756      761      760      759         9       180.000      15.16700    2     ; C-C-C-C, prebuilt X-ca-ca-X
   756      761      760      814         9       180.000      15.16700    2     ; C-C-C-H, prebuilt X-ca-ca-X
   757      756      755      811         9       180.000       1.88280    2     ; C-C-N-H, prebuilt X-ca-n-X
   757      756      761      760         9       180.000      15.16700    2     ; C-C-C-C, prebuilt X-ca-ca-X
   757      756      761      815         9       180.000      15.16700    2     ; C-C-C-H, prebuilt X-ca-ca-X
   757      758      759      760         9       180.000      15.16700    2     ; C-C-C-C, prebuilt X-ca-ca-X
   757      758      759      762         9       180.000      15.16700    2     ; C-C-C-O, prebuilt X-ca-ca-X
   758      757      756      761         9       180.000      15.16700    2     ; C-C-C-C, prebuilt X-ca-ca-X
   758      759      760      761         9       180.000      15.16700    2     ; C-C-C-C, prebuilt X-ca-ca-X
   758      759      760      814         9       180.000      15.16700    2     ; C-C-C-H, prebuilt X-ca-ca-X
   758      759      762      763         9       180.000       3.76560    2     ; C-C-O-C, prebuilt X-ca-os-X
   759      758      757      812         9       180.000      15.16700    2     ; C-C-C-H, prebuilt X-ca-ca-X
   759      760      761      815         9       180.000      15.16700    2     ; C-C-C-H, prebuilt X-ca-ca-X
   759      762      763      764         9       180.000       3.76560    2     ; C-O-C-C, prebuilt X-ca-os-X
   759      762      763      768         9       180.000       3.76560    2     ; C-O-C-C, prebuilt X-ca-os-X
   760      759      758      813         9       180.000      15.16700    2     ; C-C-C-H, prebuilt X-ca-ca-X
   760      759      762      763         9       180.000       3.76560    2     ; C-C-O-C, prebuilt X-ca-os-X
   761      756      755      811         9       180.000       1.88280    2     ; C-C-N-H, prebuilt X-ca-n-X
   761      756      757      812         9       180.000      15.16700    2     ; C-C-C-H, prebuilt X-ca-ca-X
   761      760      759      762         9       180.000      15.16700    2     ; C-C-C-O, prebuilt X-ca-ca-X
   762      759      758      813         9       180.000      15.16700    2     ; O-C-C-H, prebuilt X-ca-ca-X
   762      759      760      814         9       180.000      15.16700    2     ; O-C-C-H, prebuilt X-ca-ca-X
   762      763      764      765         9       180.000      15.16700    2     ; O-C-C-C, prebuilt X-ca-ca-X
   762      763      764      816         9       180.000      15.16700    2     ; O-C-C-H, prebuilt X-ca-ca-X
   762      763      768      767         9       180.000      15.16700    2     ; O-C-C-C, prebuilt X-ca-ca-X
   762      763      768      769         9       180.000      15.16700    2     ; O-C-C-O, prebuilt X-ca-ca-X
   763      764      765      766         9       180.000      15.16700    2     ; C-C-C-C, prebuilt X-ca-ca-X
   763      764      765      817         9       180.000      15.16700    2     ; C-C-C-H, prebuilt X-ca-ca-X
   763      768      767      766         9       180.000      15.16700    2     ; C-C-C-C, prebuilt X-ca-ca-X
   763      768      767      819         9       180.000      15.16700    2     ; C-C-C-H, prebuilt X-ca-ca-X
   763      768      769      770         9       180.000       3.76560    2     ; C-C-O-C, prebuilt X-ca-os-X
   764      763      768      767         9       180.000      15.16700    2     ; C-C-C-C, prebuilt X-ca-ca-X
   764      763      768      769         9       180.000      15.16700    2     ; C-C-C-O, prebuilt X-ca-ca-X
   764      765      766      767         9       180.000      15.16700    2     ; C-C-C-C, prebuilt X-ca-ca-X
   764      765      766      818         9       180.000      15.16700    2     ; C-C-C-H, prebuilt X-ca-ca-X
   765      764      763      768         9       180.000      15.16700    2     ; C-C-C-C, prebuilt X-ca-ca-X
   765      766      767      768         9       180.000      15.16700    2     ; C-C-C-C, prebuilt X-ca-ca-X
   765      766      767      819         9       180.000      15.16700    2     ; C-C-C-H, prebuilt X-ca-ca-X
   766      765      764      816         9       180.000      15.16700    2     ; C-C-C-H, prebuilt X-ca-ca-X
   766      767      768      769         9       180.000      15.16700    2     ; C-C-C-O, prebuilt X-ca-ca-X
   767      766      765      817         9       180.000      15.16700    2     ; C-C-C-H, prebuilt X-ca-ca-X
   767      768      769      770         9       180.000       3.76560    2     ; C-C-O-C, prebuilt X-ca-os-X
   768      763      764      816         9       180.000      15.16700    2     ; C-C-C-H, prebuilt X-ca-ca-X
   768      767      766      818         9       180.000      15.16700    2     ; C-C-C-H, prebuilt X-ca-ca-X
   768      769      770      771         9       180.000       3.76560    2     ; C-O-C-C, prebuilt X-ca-os-X
   768      769      770      775         9       180.000       3.76560    2     ; C-O-C-C, prebuilt X-ca-os-X
   769      768      767      819         9       180.000      15.16700    2     ; O-C-C-H, prebuilt X-ca-ca-X
   769      770      771      772         9       180.000      15.16700    2     ; O-C-C-C, prebuilt X-ca-ca-X
   769      770      771      820         9       180.000      15.16700    2     ; O-C-C-H, prebuilt X-ca-ca-X
   769      770      775      774         9       180.000      15.16700    2     ; O-C-C-C, prebuilt X-ca-ca-X
   769      770      775      823         9       180.000      15.16700    2     ; O-C-C-H, prebuilt X-ca-ca-X
   770      771      772      773         9       180.000      15.16700    2     ; C-C-C-C, prebuilt X-ca-ca-X
   770      771      772      821         9       180.000      15.16700    2     ; C-C-C-H, prebuilt X-ca-ca-X
   770      775      774      773         9       180.000      15.16700    2     ; C-C-C-C, prebuilt X-ca-ca-X
   770      775      774      822         9       180.000      15.16700    2     ; C-C-C-H, prebuilt X-ca-ca-X
   771      770      775      774         9       180.000      15.16700    2     ; C-C-C-C, prebuilt X-ca-ca-X
   771      770      775      823         9       180.000      15.16700    2     ; C-C-C-H, prebuilt X-ca-ca-X
   771      772      773      774         9       180.000      15.16700    2     ; C-C-C-C, prebuilt X-ca-ca-X
   771      772      773      776         9       180.000      15.16700    2     ; C-C-C-N, prebuilt X-ca-ca-X
   772      771      770      775         9       180.000      15.16700    2     ; C-C-C-C, prebuilt X-ca-ca-X
   772      773      774      775         9       180.000      15.16700    2     ; C-C-C-C, prebuilt X-ca-ca-X
   772      773      774      822         9       180.000      15.16700    2     ; C-C-C-H, prebuilt X-ca-ca-X
   772      773      776      777         9       180.000       1.88280    2     ; C-C-N-C, prebuilt X-ca-n-X
   772      773      776      824         9       180.000       1.88280    2     ; C-C-N-H, prebuilt X-ca-n-X
   773      772      771      820         9       180.000      15.16700    2     ; C-C-C-H, prebuilt X-ca-ca-X
   773      774      775      823         9       180.000      15.16700    2     ; C-C-C-H, prebuilt X-ca-ca-X
   773      776      777      778         9       180.000      10.46000    2     ; C-N-C-O, prebuilt X-c-n-X
   773      776      777      779         9       180.000      10.46000    2     ; C-N-C-C, prebuilt X-c-n-X
   774      773      772      821         9       180.000      15.16700    2     ; C-C-C-H, prebuilt X-ca-ca-X
   774      773      776      777         9       180.000       1.88280    2     ; C-C-N-C, prebuilt X-ca-n-X
   774      773      776      824         9       180.000       1.88280    2     ; C-C-N-H, prebuilt X-ca-n-X
   775      770      771      820         9       180.000      15.16700    2     ; C-C-C-H, prebuilt X-ca-ca-X
   775      774      773      776         9       180.000      15.16700    2     ; C-C-C-N, prebuilt X-ca-ca-X
   776      773      772      821         9       180.000      15.16700    2     ; N-C-C-H, prebuilt X-ca-ca-X
   776      773      774      822         9       180.000      15.16700    2     ; N-C-C-H, prebuilt X-ca-ca-X
   776      777      779      780         9       180.000       4.18400    2     ; N-C-C-C, prebuilt X-c-ca-X
   776      777      779      784         9       180.000       4.18400    2     ; N-C-C-C, prebuilt X-c-ca-X
   777      779      780      781         9       180.000      15.16700    2     ; C-C-C-C, prebuilt X-ca-ca-X
   777      779      780      825         9       180.000      15.16700    2     ; C-C-C-H, prebuilt X-ca-ca-X
   777      779      784      783         9       180.000      15.16700    2     ; C-C-C-C, prebuilt X-ca-ca-X
   777      779      784      828         9       180.000      15.16700    2     ; C-C-C-H, prebuilt X-ca-ca-X
   778      777      776      824         9       180.000      10.46000    2     ; O-C-N-H, prebuilt hn-n-c-o
   778      777      776      824         9         0.000       8.36800    1     ; O-C-N-H, prebuilt hn-n-c-o
   778      777      779      780         9       180.000       4.18400    2     ; O-C-C-C, prebuilt X-c-ca-X
   778      777      779      784         9       180.000       4.18400    2     ; O-C-C-C, prebuilt X-c-ca-X
   779      777      776      824         9       180.000      10.46000    2     ; C-C-N-H, prebuilt X-c-n-X
   779      780      781      782         9       180.000      15.16700    2     ; C-C-C-C, prebuilt X-ca-ca-X
   779      780      781      826         9       180.000      15.16700    2     ; C-C-C-H, prebuilt X-ca-ca-X
   779      784      783      782         9       180.000      15.16700    2     ; C-C-C-C, prebuilt X-ca-ca-X
   779      784      783      827         9       180.000      15.16700    2     ; C-C-C-H, prebuilt X-ca-ca-X
   780      779      784      783         9       180.000      15.16700    2     ; C-C-C-C, prebuilt X-ca-ca-X
   780      779      784      828         9       180.000      15.16700    2     ; C-C-C-H, prebuilt X-ca-ca-X
   780      781      782      783         9       180.000      15.16700    2     ; C-C-C-C, prebuilt X-ca-ca-X
   780      781      782      785         9       180.000      15.16700    2     ; C-C-C-N, prebuilt X-ca-ca-X
   781      780      779      784         9       180.000      15.16700    2     ; C-C-C-C, prebuilt X-ca-ca-X
   781      782      783      784         9       180.000      15.16700    2     ; C-C-C-C, prebuilt X-ca-ca-X
   781      782      783      827         9       180.000      15.16700    2     ; C-C-C-H, prebuilt X-ca-ca-X
   781      782      785      786         9       180.000       1.88280    2     ; C-C-N-C, prebuilt X-ca-n-X
   781      782      785      790         9       180.000       1.88280    2     ; C-C-N-C, prebuilt X-ca-n-X
   782      781      780      825         9       180.000      15.16700    2     ; C-C-C-H, prebuilt X-ca-ca-X
   782      783      784      828         9       180.000      15.16700    2     ; C-C-C-H, prebuilt X-ca-ca-X
   782      785      786      787         9       180.000      10.46000    2     ; C-N-C-O, prebuilt X-c-n-X
   782      785      786      788         9       180.000      10.46000    2     ; C-N-C-C, prebuilt X-c-n-X
   782      785      790      789         9       180.000      10.46000    2     ; C-N-C-C, prebuilt X-c-n-X
   782      785      790      791         9       180.000      10.46000    2     ; C-N-C-O, prebuilt X-c-n-X
   783      782      781      826         9       180.000      15.16700    2     ; C-C-C-H, prebuilt X-ca-ca-X
   783      782      785      786         9       180.000       1.88280    2     ; C-C-N-C, prebuilt X-ca-n-X
   783      782      785      790         9       180.000       1.88280    2     ; C-C-N-C, prebuilt X-ca-n-X
   784      779      780      825         9       180.000      15.16700    2     ; C-C-C-H, prebuilt X-ca-ca-X
   784      783      782      785         9       180.000      15.16700    2     ; C-C-C-N, prebuilt X-ca-ca-X
   785      782      781      826         9       180.000      15.16700    2     ; N-C-C-H, prebuilt X-ca-ca-X
   785      782      783      827         9       180.000      15.16700    2     ; N-C-C-H, prebuilt X-ca-ca-X
   785      786      788      789         9       180.000       4.18400    2     ; N-C-C-C, prebuilt X-c-ca-X
   785      786      788      795         9       180.000       4.18400    2     ; N-C-C-C, prebuilt X-c-ca-X
   785      790      789      788         9       180.000       4.18400    2     ; N-C-C-C, prebuilt X-c-ca-X
   785      790      789      792         9       180.000       4.18400    2     ; N-C-C-C, prebuilt X-c-ca-X
   786      785      790      789         9       180.000      10.46000    2     ; C-N-C-C, prebuilt X-c-n-X
   786      785      790      791         9       180.000      10.46000    2     ; C-N-C-O, prebuilt X-c-n-X
   786      788      789      790         9       180.000      15.16700    2     ; C-C-C-C, prebuilt X-ca-ca-X
   786      788      789      792         9       180.000      15.16700    2     ; C-C-C-C, prebuilt X-ca-ca-X
   786      788      795      794         9       180.000      15.16700    2     ; C-C-C-C, prebuilt X-ca-ca-X
   786      788      795      831         9       180.000      15.16700    2     ; C-C-C-H, prebuilt X-ca-ca-X
   787      786      785      790         9       180.000      10.46000    2     ; O-C-N-C, prebuilt X-c-n-X
   787      786      788      789         9       180.000       4.18400    2     ; O-C-C-C, prebuilt X-c-ca-X
   787      786      788      795         9       180.000       4.18400    2     ; O-C-C-C, prebuilt X-c-ca-X
   788      786      785      790         9       180.000      10.46000    2     ; C-C-N-C, prebuilt X-c-n-X
   788      789      790      791         9       180.000       4.18400    2     ; C-C-C-O, prebuilt X-c-ca-X
   788      789      792      793         9       180.000      15.16700    2     ; C-C-C-C, prebuilt X-ca-ca-X
   788      789      792      829         9       180.000      15.16700    2     ; C-C-C-H, prebuilt X-ca-ca-X
   788      795      794      793         9       180.000      15.16700    2     ; C-C-C-C, prebuilt X-ca-ca-X
   788      795      794      830         9       180.000      15.16700    2     ; C-C-C-H, prebuilt X-ca-ca-X
   789      788      795      794         9       180.000      15.16700    2     ; C-C-C-C, prebuilt X-ca-ca-X
   789      788      795      831         9       180.000      15.16700    2     ; C-C-C-H, prebuilt X-ca-ca-X
   789      792      793      794         9       180.000      15.16700    2     ; C-C-C-C, prebuilt X-ca-cp-X
   789      792      793      835         9       180.000      15.16700    2     ; C-C-C-C, prebuilt X-ca-cp-X
   790      789      788      795         9       180.000      15.16700    2     ; C-C-C-C, prebuilt X-ca-ca-X
   790      789      792      793         9       180.000      15.16700    2     ; C-C-C-C, prebuilt X-ca-ca-X
   790      789      792      829         9       180.000      15.16700    2     ; C-C-C-H, prebuilt X-ca-ca-X
   791      790      789      792         9       180.000       4.18400    2     ; O-C-C-C, prebuilt X-c-ca-X
   792      789      788      795         9       180.000      15.16700    2     ; C-C-C-C, prebuilt X-ca-ca-X
   792      793      794      795         9       180.000      15.16700    2     ; C-C-C-C, prebuilt X-ca-cp-X
   792      793      794      830         9       180.000      15.16700    2     ; C-C-C-H, prebuilt X-ca-cp-X
   792      793      835      836         9       180.000       4.18400    2     ; C-C-C-C, prebuilt X-cp-cp-X
   792      793      835      840         9       180.000       4.18400    2     ; C-C-C-C, prebuilt X-cp-cp-X
   793      794      795      831         9       180.000      15.16700    2     ; C-C-C-H, prebuilt X-ca-ca-X
   793      835      836      837         9       180.000      15.16700    2     ; C-C-C-C, prebuilt X-ca-cp-X
   793      835      836      916         9       180.000      15.16700    2     ; C-C-C-H, prebuilt X-ca-cp-X
   793      835      840      839         9       180.000      15.16700    2     ; C-C-C-C, prebuilt X-ca-cp-X
   793      835      840      918         9       180.000      15.16700    2     ; C-C-C-H, prebuilt X-ca-cp-X
   794      793      792      829         9       180.000      15.16700    2     ; C-C-C-H, prebuilt X-ca-cp-X
   794      793      835      836         9       180.000       4.18400    2     ; C-C-C-C, prebuilt X-cp-cp-X
   794      793      835      840         9       180.000       4.18400    2     ; C-C-C-C, prebuilt X-cp-cp-X
   795      794      793      835         9       180.000      15.16700    2     ; C-C-C-C, prebuilt X-ca-cp-X
   796      739      738      806         9       180.000      15.16700    2     ; C-C-C-H, prebuilt X-ca-ca-X
   796      739      740      807         9       180.000      15.16700    2     ; C-C-C-H, prebuilt X-ca-ca-X
   797      717      718      798         9       180.000      15.16700    2     ; H-C-C-H, prebuilt X-ca-ca-X
   800      728      729      801         9       180.000      15.16700    2     ; H-C-C-H, prebuilt X-ca-ca-X
   802      731      732      803         9       180.000      15.16700    2     ; H-C-C-H, prebuilt X-ca-ca-X
   805      737      738      806         9       180.000      15.16700    2     ; H-C-C-H, prebuilt X-ca-ca-X
   809      751      752      810         9       180.000      15.16700    2     ; H-C-C-H, prebuilt X-ca-ca-X
   812      757      758      813         9       180.000      15.16700    2     ; H-C-C-H, prebuilt X-ca-ca-X
   814      760      761      815         9       180.000      15.16700    2     ; H-C-C-H, prebuilt X-ca-ca-X
   816      764      765      817         9       180.000      15.16700    2     ; H-C-C-H, prebuilt X-ca-ca-X
   817      765      766      818         9       180.000      15.16700    2     ; H-C-C-H, prebuilt X-ca-ca-X
   818      766      767      819         9       180.000      15.16700    2     ; H-C-C-H, prebuilt X-ca-ca-X
   820      771      772      821         9       180.000      15.16700    2     ; H-C-C-H, prebuilt X-ca-ca-X
   822      774      775      823         9       180.000      15.16700    2     ; H-C-C-H, prebuilt X-ca-ca-X
   825      780      781      826         9       180.000      15.16700    2     ; H-C-C-H, prebuilt X-ca-ca-X
   827      783      784      828         9       180.000      15.16700    2     ; H-C-C-H, prebuilt X-ca-ca-X
   829      792      793      835         9       180.000      15.16700    2     ; H-C-C-C, prebuilt X-ca-cp-X
   830      794      793      835         9       180.000      15.16700    2     ; H-C-C-C, prebuilt X-ca-cp-X
   830      794      795      831         9       180.000      15.16700    2     ; H-C-C-H, prebuilt X-ca-ca-X
   835      836      837      838         9       180.000      15.16700    2     ; C-C-C-C, prebuilt X-ca-ca-X
   835      836      837      917         9       180.000      15.16700    2     ; C-C-C-H, prebuilt X-ca-ca-X
   835      840      839      838         9       180.000      15.16700    2     ; C-C-C-C, prebuilt X-ca-ca-X
   835      840      839      841         9       180.000      15.16700    2     ; C-C-C-C, prebuilt X-ca-ca-X
   836      835      840      839         9       180.000      15.16700    2     ; C-C-C-C, prebuilt X-ca-cp-X
   836      835      840      918         9       180.000      15.16700    2     ; C-C-C-H, prebuilt X-ca-cp-X
   836      837      838      839         9       180.000      15.16700    2     ; C-C-C-C, prebuilt X-ca-ca-X
   836      837      838      844         9       180.000      15.16700    2     ; C-C-C-C, prebuilt X-ca-ca-X
   837      836      835      840         9       180.000      15.16700    2     ; C-C-C-C, prebuilt X-ca-cp-X
   837      838      839      840         9       180.000      15.16700    2     ; C-C-C-C, prebuilt X-ca-ca-X
   837      838      839      841         9       180.000      15.16700    2     ; C-C-C-C, prebuilt X-ca-ca-X
   837      838      844      843         9       180.000       4.18400    2     ; C-C-C-N, prebuilt X-c-ca-X
   837      838      844      845         9       180.000       4.18400    2     ; C-C-C-O, prebuilt X-c-ca-X
   838      837      836      916         9       180.000      15.16700    2     ; C-C-C-H, prebuilt X-ca-ca-X
   838      839      840      918         9       180.000      15.16700    2     ; C-C-C-H, prebuilt X-ca-ca-X
   838      839      841      842         9       180.000       4.18400    2     ; C-C-C-O, prebuilt X-c-ca-X
   838      839      841      843         9       180.000       4.18400    2     ; C-C-C-N, prebuilt X-c-ca-X
   838      844      843      841         9       180.000      10.46000    2     ; C-C-N-C, prebuilt X-c-n-X
   838      844      843      846         9       180.000      10.46000    2     ; C-C-N-C, prebuilt X-c-n-X
   839      838      837      917         9       180.000      15.16700    2     ; C-C-C-H, prebuilt X-ca-ca-X
   839      838      844      843         9       180.000       4.18400    2     ; C-C-C-N, prebuilt X-c-ca-X
   839      838      844      845         9       180.000       4.18400    2     ; C-C-C-O, prebuilt X-c-ca-X
   839      841      843      844         9       180.000      10.46000    2     ; C-C-N-C, prebuilt X-c-n-X
   839      841      843      846         9       180.000      10.46000    2     ; C-C-N-C, prebuilt X-c-n-X
   840      835      836      916         9       180.000      15.16700    2     ; C-C-C-H, prebuilt X-ca-cp-X
   840      839      838      844         9       180.000      15.16700    2     ; C-C-C-C, prebuilt X-ca-ca-X
   840      839      841      842         9       180.000       4.18400    2     ; C-C-C-O, prebuilt X-c-ca-X
   840      839      841      843         9       180.000       4.18400    2     ; C-C-C-N, prebuilt X-c-ca-X
   841      839      838      844         9       180.000      15.16700    2     ; C-C-C-C, prebuilt X-ca-ca-X
   841      839      840      918         9       180.000      15.16700    2     ; C-C-C-H, prebuilt X-ca-ca-X
   841      843      844      845         9       180.000      10.46000    2     ; C-N-C-O, prebuilt X-c-n-X
   841      843      846      847         9       180.000       1.88280    2     ; C-N-C-C, prebuilt X-ca-n-X
   841      843      846      851         9       180.000       1.88280    2     ; C-N-C-C, prebuilt X-ca-n-X
   842      841      843      844         9       180.000      10.46000    2     ; O-C-N-C, prebuilt X-c-n-X
   842      841      843      846         9       180.000      10.46000    2     ; O-C-N-C, prebuilt X-c-n-X
   843      846      847      848         9       180.000      15.16700    2     ; N-C-C-C, prebuilt X-ca-ca-X
   843      846      847      919         9       180.000      15.16700    2     ; N-C-C-H, prebuilt X-ca-ca-X
   843      846      851      850         9       180.000      15.16700    2     ; N-C-C-C, prebuilt X-ca-ca-X
   843      846      851      922         9       180.000      15.16700    2     ; N-C-C-H, prebuilt X-ca-ca-X
   844      838      837      917         9       180.000      15.16700    2     ; C-C-C-H, prebuilt X-ca-ca-X
   844      843      846      847         9       180.000       1.88280    2     ; C-N-C-C, prebuilt X-ca-n-X
   844      843      846      851         9       180.000       1.88280    2     ; C-N-C-C, prebuilt X-ca-n-X
   845      844      843      846         9       180.000      10.46000    2     ; O-C-N-C, prebuilt X-c-n-X
   846      847      848      849         9       180.000      15.16700    2     ; C-C-C-C, prebuilt X-ca-ca-X
   846      847      848      920         9       180.000      15.16700    2     ; C-C-C-H, prebuilt X-ca-ca-X
   846      851      850      849         9       180.000      15.16700    2     ; C-C-C-C, prebuilt X-ca-ca-X
   846      851      850      921         9       180.000      15.16700    2     ; C-C-C-H, prebuilt X-ca-ca-X
   847      846      851      850         9       180.000      15.16700    2     ; C-C-C-C, prebuilt X-ca-ca-X
   847      846      851      922         9       180.000      15.16700    2     ; C-C-C-H, prebuilt X-ca-ca-X
   847      848      849      850         9       180.000      15.16700    2     ; C-C-C-C, prebuilt X-ca-ca-X
   847      848      849      852         9       180.000      15.16700    2     ; C-C-C-N, prebuilt X-ca-ca-X
   848      847      846      851         9       180.000      15.16700    2     ; C-C-C-C, prebuilt X-ca-ca-X
   848      849      850      851         9       180.000      15.16700    2     ; C-C-C-C, prebuilt X-ca-ca-X
   848      849      850      921         9       180.000      15.16700    2     ; C-C-C-H, prebuilt X-ca-ca-X
   848      849      852      853         9       180.000       1.88280    2     ; C-C-N-C, prebuilt X-ca-n-X
   848      849      852      923         9       180.000       1.88280    2     ; C-C-N-H, prebuilt X-ca-n-X
   849      848      847      919         9       180.000      15.16700    2     ; C-C-C-H, prebuilt X-ca-ca-X
   849      850      851      922         9       180.000      15.16700    2     ; C-C-C-H, prebuilt X-ca-ca-X
   849      852      853      854         9       180.000      10.46000    2     ; C-N-C-O, prebuilt X-c-n-X
   849      852      853      855         9       180.000      10.46000    2     ; C-N-C-C, prebuilt X-c-n-X
   850      849      848      920         9       180.000      15.16700    2     ; C-C-C-H, prebuilt X-ca-ca-X
   850      849      852      853         9       180.000       1.88280    2     ; C-C-N-C, prebuilt X-ca-n-X
   850      849      852      923         9       180.000       1.88280    2     ; C-C-N-H, prebuilt X-ca-n-X
   851      846      847      919         9       180.000      15.16700    2     ; C-C-C-H, prebuilt X-ca-ca-X
   851      850      849      852         9       180.000      15.16700    2     ; C-C-C-N, prebuilt X-ca-ca-X
   852      849      848      920         9       180.000      15.16700    2     ; N-C-C-H, prebuilt X-ca-ca-X
   852      849      850      921         9       180.000      15.16700    2     ; N-C-C-H, prebuilt X-ca-ca-X
   852      853      855      856         9       180.000       4.18400    2     ; N-C-C-C, prebuilt X-c-ca-X
   852      853      855      860         9       180.000       4.18400    2     ; N-C-C-C, prebuilt X-c-ca-X
   853      855      856      857         9       180.000      15.16700    2     ; C-C-C-C, prebuilt X-ca-ca-X
   853      855      856      924         9       180.000      15.16700    2     ; C-C-C-H, prebuilt X-ca-ca-X
   853      855      860      859         9       180.000      15.16700    2     ; C-C-C-C, prebuilt X-ca-ca-X
   853      855      860      861         9       180.000      15.16700    2     ; C-C-C-N, prebuilt X-ca-ca-X
   854      853      852      923         9       180.000      10.46000    2     ; O-C-N-H, prebuilt hn-n-c-o
   854      853      852      923         9         0.000       8.36800    1     ; O-C-N-H, prebuilt hn-n-c-o
   854      853      855      856         9       180.000       4.18400    2     ; O-C-C-C, prebuilt X-c-ca-X
   854      853      855      860         9       180.000       4.18400    2     ; O-C-C-C, prebuilt X-c-ca-X
   855      853      852      923         9       180.000      10.46000    2     ; C-C-N-H, prebuilt X-c-n-X
   855      856      857      858         9       180.000      15.16700    2     ; C-C-C-C, prebuilt X-ca-ca-X
   855      856      857      925         9       180.000      15.16700    2     ; C-C-C-H, prebuilt X-ca-ca-X
   855      860      859      858         9       180.000      15.16700    2     ; C-C-C-C, prebuilt X-ca-ca-X
   855      860      859      926         9       180.000      15.16700    2     ; C-C-C-H, prebuilt X-ca-ca-X
   855      860      861      862         9       180.000       1.88280    2     ; C-C-N-C, prebuilt X-ca-n-X
   855      860      861      866         9       180.000       1.88280    2     ; C-C-N-C, prebuilt X-ca-n-X
   856      855      860      859         9       180.000      15.16700    2     ; C-C-C-C, prebuilt X-ca-ca-X
   856      855      860      861         9       180.000      15.16700    2     ; C-C-C-N, prebuilt X-ca-ca-X
   856      857      858      859         9       180.000      15.16700    2     ; C-C-C-C, prebuilt X-ca-ca-X
   856      857      858      915         9       180.000      15.16700    2     ; C-C-C-C, prebuilt X-ca-ca-X
   857      856      855      860         9       180.000      15.16700    2     ; C-C-C-C, prebuilt X-ca-ca-X
   857      858      859      860         9       180.000      15.16700    2     ; C-C-C-C, prebuilt X-ca-ca-X
   857      858      859      926         9       180.000      15.16700    2     ; C-C-C-H, prebuilt X-ca-ca-X
   857      858      915      951         9         0.000       0.00000    2     ; C-C-C-H, prebuilt X-c3-ca-X
   857      858      915      952         9         0.000       0.00000    2     ; C-C-C-H, prebuilt X-c3-ca-X
   857      858      915      953         9         0.000       0.00000    2     ; C-C-C-H, prebuilt X-c3-ca-X
   858      857      856      924         9       180.000      15.16700    2     ; C-C-C-H, prebuilt X-ca-ca-X
   858      859      860      861         9       180.000      15.16700    2     ; C-C-C-N, prebuilt X-ca-ca-X
   859      858      857      925         9       180.000      15.16700    2     ; C-C-C-H, prebuilt X-ca-ca-X
   859      858      915      951         9         0.000       0.00000    2     ; C-C-C-H, prebuilt X-c3-ca-X
   859      858      915      952         9         0.000       0.00000    2     ; C-C-C-H, prebuilt X-c3-ca-X
   859      858      915      953         9         0.000       0.00000    2     ; C-C-C-H, prebuilt X-c3-ca-X
   859      860      861      862         9       180.000       1.88280    2     ; C-C-N-C, prebuilt X-ca-n-X
   859      860      861      866         9       180.000       1.88280    2     ; C-C-N-C, prebuilt X-ca-n-X
   860      855      856      924         9       180.000      15.16700    2     ; C-C-C-H, prebuilt X-ca-ca-X
   860      859      858      915         9       180.000      15.16700    2     ; C-C-C-C, prebuilt X-ca-ca-X
   860      861      862      863         9       180.000      10.46000    2     ; C-N-C-O, prebuilt X-c-n-X
   860      861      862      864         9       180.000      10.46000    2     ; C-N-C-C, prebuilt X-c-n-X
   860      861      866      865         9       180.000      10.46000    2     ; C-N-C-C, prebuilt X-c-n-X
   860      861      866      867         9       180.000      10.46000    2     ; C-N-C-O, prebuilt X-c-n-X
   861      860      859      926         9       180.000      15.16700    2     ; N-C-C-H, prebuilt X-ca-ca-X
   861      862      864      865         9       180.000       4.18400    2     ; N-C-C-C, prebuilt X-c-ca-X
   861      862      864      871         9       180.000       4.18400    2     ; N-C-C-C, prebuilt X-c-ca-X
   861      866      865      864         9       180.000       4.18400    2     ; N-C-C-C, prebuilt X-c-ca-X
   861      866      865      868         9       180.000       4.18400    2     ; N-C-C-C, prebuilt X-c-ca-X
   862      861      866      865         9       180.000      10.46000    2     ; C-N-C-C, prebuilt X-c-n-X
   862      861      866      867         9       180.000      10.46000    2     ; C-N-C-O, prebuilt X-c-n-X
   862      864      865      866         9       180.000      15.16700    2     ; C-C-C-C, prebuilt X-ca-ca-X
   862      864      865      868         9       180.000      15.16700    2     ; C-C-C-C, prebuilt X-ca-ca-X
   862      864      871      870         9       180.000      15.16700    2     ; C-C-C-C, prebuilt X-ca-ca-X
   862      864      871      929         9       180.000      15.16700    2     ; C-C-C-H, prebuilt X-ca-ca-X
   863      862      861      866         9       180.000      10.46000    2     ; O-C-N-C, prebuilt X-c-n-X
   863      862      864      865         9       180.000       4.18400    2     ; O-C-C-C, prebuilt X-c-ca-X
   863      862      864      871         9       180.000       4.18400    2     ; O-C-C-C, prebuilt X-c-ca-X
   864      862      861      866         9       180.000      10.46000    2     ; C-C-N-C, prebuilt X-c-n-X
   864      865      866      867         9       180.000       4.18400    2     ; C-C-C-O, prebuilt X-c-ca-X
   864      865      868      869         9       180.000      15.16700    2     ; C-C-C-C, prebuilt X-ca-ca-X
   864      865      868      927         9       180.000      15.16700    2     ; C-C-C-H, prebuilt X-ca-ca-X
   864      871      870      869         9       180.000      15.16700    2     ; C-C-C-C, prebuilt X-ca-ca-X
   864      871      870      928         9       180.000      15.16700    2     ; C-C-C-H, prebuilt X-ca-ca-X
   865      864      871      870         9       180.000      15.16700    2     ; C-C-C-C, prebuilt X-ca-ca-X
   865      864      871      929         9       180.000      15.16700    2     ; C-C-C-H, prebuilt X-ca-ca-X
   865      868      869      870         9       180.000      15.16700    2     ; C-C-C-C, prebuilt X-ca-ca-X
   865      868      869      872         9       180.000      15.16700    2     ; C-C-C-C, prebuilt X-ca-ca-X
   866      865      864      871         9       180.000      15.16700    2     ; C-C-C-C, prebuilt X-ca-ca-X
   866      865      868      869         9       180.000      15.16700    2     ; C-C-C-C, prebuilt X-ca-ca-X
   866      865      868      927         9       180.000      15.16700    2     ; C-C-C-H, prebuilt X-ca-ca-X
   867      866      865      868         9       180.000       4.18400    2     ; O-C-C-C, prebuilt X-c-ca-X
   868      865      864      871         9       180.000      15.16700    2     ; C-C-C-C, prebuilt X-ca-ca-X
   868      869      870      871         9       180.000      15.16700    2     ; C-C-C-C, prebuilt X-ca-ca-X
   868      869      870      928         9       180.000      15.16700    2     ; C-C-C-H, prebuilt X-ca-ca-X
   868      869      872      873         9       180.000       4.18400    2     ; C-C-C-O, prebuilt X-c-ca-X
   868      869      872      874         9       180.000       4.18400    2     ; C-C-C-N, prebuilt X-c-ca-X
   869      870      871      929         9       180.000      15.16700    2     ; C-C-C-H, prebuilt X-ca-ca-X
   869      872      874      875         9       180.000      10.46000    2     ; C-C-N-C, prebuilt X-c-n-X
   869      872      874      930         9       180.000      10.46000    2     ; C-C-N-H, prebuilt X-c-n-X
   870      869      868      927         9       180.000      15.16700    2     ; C-C-C-H, prebuilt X-ca-ca-X
   870      869      872      873         9       180.000       4.18400    2     ; C-C-C-O, prebuilt X-c-ca-X
   870      869      872      874         9       180.000       4.18400    2     ; C-C-C-N, prebuilt X-c-ca-X
   871      870      869      872         9       180.000      15.16700    2     ; C-C-C-C, prebuilt X-ca-ca-X
   872      869      868      927         9       180.000      15.16700    2     ; C-C-C-H, prebuilt X-ca-ca-X
   872      869      870      928         9       180.000      15.16700    2     ; C-C-C-H, prebuilt X-ca-ca-X
   872      874      875      876         9       180.000       1.88280    2     ; C-N-C-C, prebuilt X-ca-n-X
   872      874      875      880         9       180.000       1.88280    2     ; C-N-C-C, prebuilt X-ca-n-X
   873      872      874      875         9       180.000      10.46000    2     ; O-C-N-C, prebuilt X-c-n-X
   873      872      874      930         9       180.000      10.46000    2     ; O-C-N-H, prebuilt hn-n-c-o
   873      872      874      930         9         0.000       8.36800    1     ; O-C-N-H, prebuilt hn-n-c-o
   874      875      876      877         9       180.000      15.16700    2     ; N-C-C-C, prebuilt X-ca-ca-X
   874      875      876      931         9       180.000      15.16700    2     ; N-C-C-H, prebuilt X-ca-ca-X
   874      875      880      879         9       180.000      15.16700    2     ; N-C-C-C, prebuilt X-ca-ca-X
   874      875      880      934         9       180.000      15.16700    2     ; N-C-C-H, prebuilt X-ca-ca-X
   875      876      877      878         9       180.000      15.16700    2     ; C-C-C-C, prebuilt X-ca-ca-X
   875      876      877      932         9       180.000      15.16700    2     ; C-C-C-H, prebuilt X-ca-ca-X
   875      880      879      878         9       180.000      15.16700    2     ; C-C-C-C, prebuilt X-ca-ca-X
   875      880      879      933         9       180.000      15.16700    2     ; C-C-C-H, prebuilt X-ca-ca-X
   876      875      874      930         9       180.000       1.88280    2     ; C-C-N-H, prebuilt X-ca-n-X
   876      875      880      879         9       180.000      15.16700    2     ; C-C-C-C, prebuilt X-ca-ca-X
   876      875      880      934         9       180.000      15.16700    2     ; C-C-C-H, prebuilt X-ca-ca-X
   876      877      878      879         9       180.000      15.16700    2     ; C-C-C-C, prebuilt X-ca-ca-X
   876      877      878      881         9       180.000      15.16700    2     ; C-C-C-O, prebuilt X-ca-ca-X
   877      876      875      880         9       180.000      15.16700    2     ; C-C-C-C, prebuilt X-ca-ca-X
   877      878      879      880         9       180.000      15.16700    2     ; C-C-C-C, prebuilt X-ca-ca-X
   877      878      879      933         9       180.000      15.16700    2     ; C-C-C-H, prebuilt X-ca-ca-X
   877      878      881      882         9       180.000       3.76560    2     ; C-C-O-C, prebuilt X-ca-os-X
   878      877      876      931         9       180.000      15.16700    2     ; C-C-C-H, prebuilt X-ca-ca-X
   878      879      880      934         9       180.000      15.16700    2     ; C-C-C-H, prebuilt X-ca-ca-X
   878      881      882      883         9       180.000       3.76560    2     ; C-O-C-C, prebuilt X-ca-os-X
   878      881      882      887         9       180.000       3.76560    2     ; C-O-C-C, prebuilt X-ca-os-X
   879      878      877      932         9       180.000      15.16700    2     ; C-C-C-H, prebuilt X-ca-ca-X
   879      878      881      882         9       180.000       3.76560    2     ; C-C-O-C, prebuilt X-ca-os-X
   880      875      874      930         9       180.000       1.88280    2     ; C-C-N-H, prebuilt X-ca-n-X
   880      875      876      931         9       180.000      15.16700    2     ; C-C-C-H, prebuilt X-ca-ca-X
   880      879      878      881         9       180.000      15.16700    2     ; C-C-C-O, prebuilt X-ca-ca-X
   881      878      877      932         9       180.000      15.16700    2     ; O-C-C-H, prebuilt X-ca-ca-X
   881      878      879      933         9       180.000      15.16700    2     ; O-C-C-H, prebuilt X-ca-ca-X
   881      882      883      884         9       180.000      15.16700    2     ; O-C-C-C, prebuilt X-ca-ca-X
   881      882      883      935         9       180.000      15.16700    2     ; O-C-C-H, prebuilt X-ca-ca-X
   881      882      887      886         9       180.000      15.16700    2     ; O-C-C-C, prebuilt X-ca-ca-X
   881      882      887      888         9       180.000      15.16700    2     ; O-C-C-O, prebuilt X-ca-ca-X
   882      883      884      885         9       180.000      15.16700    2     ; C-C-C-C, prebuilt X-ca-ca-X
   882      883      884      936         9       180.000      15.16700    2     ; C-C-C-H, prebuilt X-ca-ca-X
   882      887      886      885         9       180.000      15.16700    2     ; C-C-C-C, prebuilt X-ca-ca-X
   882      887      886      938         9       180.000      15.16700    2     ; C-C-C-H, prebuilt X-ca-ca-X
   882      887      888      889         9       180.000       3.76560    2     ; C-C-O-C, prebuilt X-ca-os-X
   883      882      887      886         9       180.000      15.16700    2     ; C-C-C-C, prebuilt X-ca-ca-X
   883      882      887      888         9       180.000      15.16700    2     ; C-C-C-O, prebuilt X-ca-ca-X
   883      884      885      886         9       180.000      15.16700    2     ; C-C-C-C, prebuilt X-ca-ca-X
   883      884      885      937         9       180.000      15.16700    2     ; C-C-C-H, prebuilt X-ca-ca-X
   884      883      882      887         9       180.000      15.16700    2     ; C-C-C-C, prebuilt X-ca-ca-X
   884      885      886      887         9       180.000      15.16700    2     ; C-C-C-C, prebuilt X-ca-ca-X
   884      885      886      938         9       180.000      15.16700    2     ; C-C-C-H, prebuilt X-ca-ca-X
   885      884      883      935         9       180.000      15.16700    2     ; C-C-C-H, prebuilt X-ca-ca-X
   885      886      887      888         9       180.000      15.16700    2     ; C-C-C-O, prebuilt X-ca-ca-X
   886      885      884      936         9       180.000      15.16700    2     ; C-C-C-H, prebuilt X-ca-ca-X
   886      887      888      889         9       180.000       3.76560    2     ; C-C-O-C, prebuilt X-ca-os-X
   887      882      883      935         9       180.000      15.16700    2     ; C-C-C-H, prebuilt X-ca-ca-X
   887      886      885      937         9       180.000      15.16700    2     ; C-C-C-H, prebuilt X-ca-ca-X
   887      888      889      890         9       180.000       3.76560    2     ; C-O-C-C, prebuilt X-ca-os-X
   887      888      889      894         9       180.000       3.76560    2     ; C-O-C-C, prebuilt X-ca-os-X
   888      887      886      938         9       180.000      15.16700    2     ; O-C-C-H, prebuilt X-ca-ca-X
   888      889      890      891         9       180.000      15.16700    2     ; O-C-C-C, prebuilt X-ca-ca-X
   888      889      890      939         9       180.000      15.16700    2     ; O-C-C-H, prebuilt X-ca-ca-X
   888      889      894      893         9       180.000      15.16700    2     ; O-C-C-C, prebuilt X-ca-ca-X
   888      889      894      942         9       180.000      15.16700    2     ; O-C-C-H, prebuilt X-ca-ca-X
   889      890      891      892         9       180.000      15.16700    2     ; C-C-C-C, prebuilt X-ca-ca-X
   889      890      891      940         9       180.000      15.16700    2     ; C-C-C-H, prebuilt X-ca-ca-X
   889      894      893      892         9       180.000      15.16700    2     ; C-C-C-C, prebuilt X-ca-ca-X
   889      894      893      941         9       180.000      15.16700    2     ; C-C-C-H, prebuilt X-ca-ca-X
   890      889      894      893         9       180.000      15.16700    2     ; C-C-C-C, prebuilt X-ca-ca-X
   890      889      894      942         9       180.000      15.16700    2     ; C-C-C-H, prebuilt X-ca-ca-X
   890      891      892      893         9       180.000      15.16700    2     ; C-C-C-C, prebuilt X-ca-ca-X
   890      891      892      895         9       180.000      15.16700    2     ; C-C-C-N, prebuilt X-ca-ca-X
   891      890      889      894         9       180.000      15.16700    2     ; C-C-C-C, prebuilt X-ca-ca-X
   891      892      893      894         9       180.000      15.16700    2     ; C-C-C-C, prebuilt X-ca-ca-X
   891      892      893      941         9       180.000      15.16700    2     ; C-C-C-H, prebuilt X-ca-ca-X
   891      892      895      896         9       180.000       1.88280    2     ; C-C-N-C, prebuilt X-ca-n-X
   891      892      895      943         9       180.000       1.88280    2     ; C-C-N-H, prebuilt X-ca-n-X
   892      891      890      939         9       180.000      15.16700    2     ; C-C-C-H, prebuilt X-ca-ca-X
   892      893      894      942         9       180.000      15.16700    2     ; C-C-C-H, prebuilt X-ca-ca-X
   892      895      896      897         9       180.000      10.46000    2     ; C-N-C-O, prebuilt X-c-n-X
   892      895      896      898         9       180.000      10.46000    2     ; C-N-C-C, prebuilt X-c-n-X
   893      892      891      940         9       180.000      15.16700    2     ; C-C-C-H, prebuilt X-ca-ca-X
   893      892      895      896         9       180.000       1.88280    2     ; C-C-N-C, prebuilt X-ca-n-X
   893      892      895      943         9       180.000       1.88280    2     ; C-C-N-H, prebuilt X-ca-n-X
   894      889      890      939         9       180.000      15.16700    2     ; C-C-C-H, prebuilt X-ca-ca-X
   894      893      892      895         9       180.000      15.16700    2     ; C-C-C-N, prebuilt X-ca-ca-X
   895      892      891      940         9       180.000      15.16700    2     ; N-C-C-H, prebuilt X-ca-ca-X
   895      892      893      941         9       180.000      15.16700    2     ; N-C-C-H, prebuilt X-ca-ca-X
   895      896      898      899         9       180.000       4.18400    2     ; N-C-C-C, prebuilt X-c-ca-X
   895      896      898      903         9       180.000       4.18400    2     ; N-C-C-C, prebuilt X-c-ca-X
   896      898      899      900         9       180.000      15.16700    2     ; C-C-C-C, prebuilt X-ca-ca-X
   896      898      899      944         9       180.000      15.16700    2     ; C-C-C-H, prebuilt X-ca-ca-X
   896      898      903      902         9       180.000      15.16700    2     ; C-C-C-C, prebuilt X-ca-ca-X
   896      898      903      947         9       180.000      15.16700    2     ; C-C-C-H, prebuilt X-ca-ca-X
   897      896      895      943         9       180.000      10.46000    2     ; O-C-N-H, prebuilt hn-n-c-o
   897      896      895      943         9         0.000       8.36800    1     ; O-C-N-H, prebuilt hn-n-c-o
   897      896      898      899         9       180.000       4.18400    2     ; O-C-C-C, prebuilt X-c-ca-X
   897      896      898      903         9       180.000       4.18400    2     ; O-C-C-C, prebuilt X-c-ca-X
   898      896      895      943         9       180.000      10.46000    2     ; C-C-N-H, prebuilt X-c-n-X
   898      899      900      901         9       180.000      15.16700    2     ; C-C-C-C, prebuilt X-ca-ca-X
   898      899      900      945         9       180.000      15.16700    2     ; C-C-C-H, prebuilt X-ca-ca-X
   898      903      902      901         9       180.000      15.16700    2     ; C-C-C-C, prebuilt X-ca-ca-X
   898      903      902      946         9       180.000      15.16700    2     ; C-C-C-H, prebuilt X-ca-ca-X
   899      898      903      902         9       180.000      15.16700    2     ; C-C-C-C, prebuilt X-ca-ca-X
   899      898      903      947         9       180.000      15.16700    2     ; C-C-C-H, prebuilt X-ca-ca-X
   899      900      901      902         9       180.000      15.16700    2     ; C-C-C-C, prebuilt X-ca-ca-X
   899      900      901      904         9       180.000      15.16700    2     ; C-C-C-N, prebuilt X-ca-ca-X
   900      899      898      903         9       180.000      15.16700    2     ; C-C-C-C, prebuilt X-ca-ca-X
   900      901      902      903         9       180.000      15.16700    2     ; C-C-C-C, prebuilt X-ca-ca-X
   900      901      902      946         9       180.000      15.16700    2     ; C-C-C-H, prebuilt X-ca-ca-X
   900      901      904      905         9       180.000       1.88280    2     ; C-C-N-C, prebuilt X-ca-n-X
   900      901      904      909         9       180.000       1.88280    2     ; C-C-N-C, prebuilt X-ca-n-X
   901      900      899      944         9       180.000      15.16700    2     ; C-C-C-H, prebuilt X-ca-ca-X
   901      902      903      947         9       180.000      15.16700    2     ; C-C-C-H, prebuilt X-ca-ca-X
   901      904      905      906         9       180.000      10.46000    2     ; C-N-C-O, prebuilt X-c-n-X
   901      904      905      907         9       180.000      10.46000    2     ; C-N-C-C, prebuilt X-c-n-X
   901      904      909      908         9       180.000      10.46000    2     ; C-N-C-C, prebuilt X-c-n-X
   901      904      909      910         9       180.000      10.46000    2     ; C-N-C-O, prebuilt X-c-n-X
   902      901      900      945         9       180.000      15.16700    2     ; C-C-C-H, prebuilt X-ca-ca-X
   902      901      904      905         9       180.000       1.88280    2     ; C-C-N-C, prebuilt X-ca-n-X
   902      901      904      909         9       180.000       1.88280    2     ; C-C-N-C, prebuilt X-ca-n-X
   903      898      899      944         9       180.000      15.16700    2     ; C-C-C-H, prebuilt X-ca-ca-X
   903      902      901      904         9       180.000      15.16700    2     ; C-C-C-N, prebuilt X-ca-ca-X
   904      901      900      945         9       180.000      15.16700    2     ; N-C-C-H, prebuilt X-ca-ca-X
   904      901      902      946         9       180.000      15.16700    2     ; N-C-C-H, prebuilt X-ca-ca-X
   904      905      907      908         9       180.000       4.18400    2     ; N-C-C-C, prebuilt X-c-ca-X
   904      905      907      914         9       180.000       4.18400    2     ; N-C-C-C, prebuilt X-c-ca-X
   904      909      908      907         9       180.000       4.18400    2     ; N-C-C-C, prebuilt X-c-ca-X
   904      909      908      911         9       180.000       4.18400    2     ; N-C-C-C, prebuilt X-c-ca-X
   905      904      909      908         9       180.000      10.46000    2     ; C-N-C-C, prebuilt X-c-n-X
   905      904      909      910         9       180.000      10.46000    2     ; C-N-C-O, prebuilt X-c-n-X
   905      907      908      909         9       180.000      15.16700    2     ; C-C-C-C, prebuilt X-ca-ca-X
   905      907      908      911         9       180.000      15.16700    2     ; C-C-C-C, prebuilt X-ca-ca-X
   905      907      914      913         9       180.000      15.16700    2     ; C-C-C-C, prebuilt X-ca-ca-X
   905      907      914      950         9       180.000      15.16700    2     ; C-C-C-H, prebuilt X-ca-ca-X
   906      905      904      909         9       180.000      10.46000    2     ; O-C-N-C, prebuilt X-c-n-X
   906      905      907      908         9       180.000       4.18400    2     ; O-C-C-C, prebuilt X-c-ca-X
   906      905      907      914         9       180.000       4.18400    2     ; O-C-C-C, prebuilt X-c-ca-X
   907      905      904      909         9       180.000      10.46000    2     ; C-C-N-C, prebuilt X-c-n-X
   907      908      909      910         9       180.000       4.18400    2     ; C-C-C-O, prebuilt X-c-ca-X
   907      908      911      912         9       180.000      15.16700    2     ; C-C-C-C, prebuilt X-ca-ca-X
   907      908      911      948         9       180.000      15.16700    2     ; C-C-C-H, prebuilt X-ca-ca-X
   907      914      913      912         9       180.000      15.16700    2     ; C-C-C-C, prebuilt X-ca-ca-X
   907      914      913      949         9       180.000      15.16700    2     ; C-C-C-H, prebuilt X-ca-ca-X
   908      907      914      913         9       180.000      15.16700    2     ; C-C-C-C, prebuilt X-ca-ca-X
   908      907      914      950         9       180.000      15.16700    2     ; C-C-C-H, prebuilt X-ca-ca-X
   908      911      912      913         9       180.000      15.16700    2     ; C-C-C-C, prebuilt X-ca-cp-X
   908      911      912      954         9       180.000      15.16700    2     ; C-C-C-C, prebuilt X-ca-cp-X
   909      908      907      914         9       180.000      15.16700    2     ; C-C-C-C, prebuilt X-ca-ca-X
   909      908      911      912         9       180.000      15.16700    2     ; C-C-C-C, prebuilt X-ca-ca-X
   909      908      911      948         9       180.000      15.16700    2     ; C-C-C-H, prebuilt X-ca-ca-X
   910      909      908      911         9       180.000       4.18400    2     ; O-C-C-C, prebuilt X-c-ca-X
   911      908      907      914         9       180.000      15.16700    2     ; C-C-C-C, prebuilt X-ca-ca-X
   911      912      913      914         9       180.000      15.16700    2     ; C-C-C-C, prebuilt X-ca-cp-X
   911      912      913      949         9       180.000      15.16700    2     ; C-C-C-H, prebuilt X-ca-cp-X
   911      912      954      955         9       180.000       4.18400    2     ; C-C-C-C, prebuilt X-cp-cp-X
   911      912      954      959         9       180.000       4.18400    2     ; C-C-C-C, prebuilt X-cp-cp-X
   912      913      914      950         9       180.000      15.16700    2     ; C-C-C-H, prebuilt X-ca-ca-X
   912      954      955      956         9       180.000      15.16700    2     ; C-C-C-C, prebuilt X-ca-cp-X
   912      954      955     1035         9       180.000      15.16700    2     ; C-C-C-H, prebuilt X-ca-cp-X
   912      954      959      958         9       180.000      15.16700    2     ; C-C-C-C, prebuilt X-ca-cp-X
   912      954      959     1037         9       180.000      15.16700    2     ; C-C-C-H, prebuilt X-ca-cp-X
   913      912      911      948         9       180.000      15.16700    2     ; C-C-C-H, prebuilt X-ca-cp-X
   913      912      954      955         9       180.000       4.18400    2     ; C-C-C-C, prebuilt X-cp-cp-X
   913      912      954      959         9       180.000       4.18400    2     ; C-C-C-C, prebuilt X-cp-cp-X
   914      913      912      954         9       180.000      15.16700    2     ; C-C-C-C, prebuilt X-ca-cp-X
   915      858      857      925         9       180.000      15.16700    2     ; C-C-C-H, prebuilt X-ca-ca-X
   915      858      859      926         9       180.000      15.16700    2     ; C-C-C-H, prebuilt X-ca-ca-X
   916      836      837      917         9       180.000      15.16700    2     ; H-C-C-H, prebuilt X-ca-ca-X
   919      847      848      920         9       180.000      15.16700    2     ; H-C-C-H, prebuilt X-ca-ca-X
   921      850      851      922         9       180.000      15.16700    2     ; H-C-C-H, prebuilt X-ca-ca-X
   924      856      857      925         9       180.000      15.16700    2     ; H-C-C-H, prebuilt X-ca-ca-X
   928      870      871      929         9       180.000      15.16700    2     ; H-C-C-H, prebuilt X-ca-ca-X
   931      876      877      932         9       180.000      15.16700    2     ; H-C-C-H, prebuilt X-ca-ca-X
   933      879      880      934         9       180.000      15.16700    2     ; H-C-C-H, prebuilt X-ca-ca-X
   935      883      884      936         9       180.000      15.16700    2     ; H-C-C-H, prebuilt X-ca-ca-X
   936      884      885      937         9       180.000      15.16700    2     ; H-C-C-H, prebuilt X-ca-ca-X
   937      885      886      938         9       180.000      15.16700    2     ; H-C-C-H, prebuilt X-ca-ca-X
   939      890      891      940         9       180.000      15.16700    2     ; H-C-C-H, prebuilt X-ca-ca-X
   941      893      894      942         9       180.000      15.16700    2     ; H-C-C-H, prebuilt X-ca-ca-X
   944      899      900      945         9       180.000      15.16700    2     ; H-C-C-H, prebuilt X-ca-ca-X
   946      902      903      947         9       180.000      15.16700    2     ; H-C-C-H, prebuilt X-ca-ca-X
   948      911      912      954         9       180.000      15.16700    2     ; H-C-C-C, prebuilt X-ca-cp-X
   949      913      912      954         9       180.000      15.16700    2     ; H-C-C-C, prebuilt X-ca-cp-X
   949      913      914      950         9       180.000      15.16700    2     ; H-C-C-H, prebuilt X-ca-ca-X
   954      955      956      957         9       180.000      15.16700    2     ; C-C-C-C, prebuilt X-ca-ca-X
   954      955      956     1036         9       180.000      15.16700    2     ; C-C-C-H, prebuilt X-ca-ca-X
   954      959      958      957         9       180.000      15.16700    2     ; C-C-C-C, prebuilt X-ca-ca-X
   954      959      958      960         9       180.000      15.16700    2     ; C-C-C-C, prebuilt X-ca-ca-X
   955      954      959      958         9       180.000      15.16700    2     ; C-C-C-C, prebuilt X-ca-cp-X
   955      954      959     1037         9       180.000      15.16700    2     ; C-C-C-H, prebuilt X-ca-cp-X
   955      956      957      958         9       180.000      15.16700    2     ; C-C-C-C, prebuilt X-ca-ca-X
   955      956      957      963         9       180.000      15.16700    2     ; C-C-C-C, prebuilt X-ca-ca-X
   956      955      954      959         9       180.000      15.16700    2     ; C-C-C-C, prebuilt X-ca-cp-X
   956      957      958      959         9       180.000      15.16700    2     ; C-C-C-C, prebuilt X-ca-ca-X
   956      957      958      960         9       180.000      15.16700    2     ; C-C-C-C, prebuilt X-ca-ca-X
   956      957      963      962         9       180.000       4.18400    2     ; C-C-C-N, prebuilt X-c-ca-X
   956      957      963      964         9       180.000       4.18400    2     ; C-C-C-O, prebuilt X-c-ca-X
   957      956      955     1035         9       180.000      15.16700    2     ; C-C-C-H, prebuilt X-ca-ca-X
   957      958      959     1037         9       180.000      15.16700    2     ; C-C-C-H, prebuilt X-ca-ca-X
   957      958      960      961         9       180.000       4.18400    2     ; C-C-C-O, prebuilt X-c-ca-X
   957      958      960      962         9       180.000       4.18400    2     ; C-C-C-N, prebuilt X-c-ca-X
   957      963      962      960         9       180.000      10.46000    2     ; C-C-N-C, prebuilt X-c-n-X
   957      963      962      965         9       180.000      10.46000    2     ; C-C-N-C, prebuilt X-c-n-X
   958      957      956     1036         9       180.000      15.16700    2     ; C-C-C-H, prebuilt X-ca-ca-X
   958      957      963      962         9       180.000       4.18400    2     ; C-C-C-N, prebuilt X-c-ca-X
   958      957      963      964         9       180.000       4.18400    2     ; C-C-C-O, prebuilt X-c-ca-X
   958      960      962      963         9       180.000      10.46000    2     ; C-C-N-C, prebuilt X-c-n-X
   958      960      962      965         9       180.000      10.46000    2     ; C-C-N-C, prebuilt X-c-n-X
   959      954      955     1035         9       180.000      15.16700    2     ; C-C-C-H, prebuilt X-ca-cp-X
   959      958      957      963         9       180.000      15.16700    2     ; C-C-C-C, prebuilt X-ca-ca-X
   959      958      960      961         9       180.000       4.18400    2     ; C-C-C-O, prebuilt X-c-ca-X
   959      958      960      962         9       180.000       4.18400    2     ; C-C-C-N, prebuilt X-c-ca-X
   960      958      957      963         9       180.000      15.16700    2     ; C-C-C-C, prebuilt X-ca-ca-X
   960      958      959     1037         9       180.000      15.16700    2     ; C-C-C-H, prebuilt X-ca-ca-X
   960      962      963      964         9       180.000      10.46000    2     ; C-N-C-O, prebuilt X-c-n-X
   960      962      965      966         9       180.000       1.88280    2     ; C-N-C-C, prebuilt X-ca-n-X
   960      962      965      970         9       180.000       1.88280    2     ; C-N-C-C, prebuilt X-ca-n-X
   961      960      962      963         9       180.000      10.46000    2     ; O-C-N-C, prebuilt X-c-n-X
   961      960      962      965         9       180.000      10.46000    2     ; O-C-N-C, prebuilt X-c-n-X
   962      965      966      967         9       180.000      15.16700    2     ; N-C-C-C, prebuilt X-ca-ca-X
   962      965      966     1038         9       180.000      15.16700    2     ; N-C-C-H, prebuilt X-ca-ca-X
   962      965      970      969         9       180.000      15.16700    2     ; N-C-C-C, prebuilt X-ca-ca-X
   962      965      970     1041         9       180.000      15.16700    2     ; N-C-C-H, prebuilt X-ca-ca-X
   963      957      956     1036         9       180.000      15.16700    2     ; C-C-C-H, prebuilt X-ca-ca-X
   963      962      965      966         9       180.000       1.88280    2     ; C-N-C-C, prebuilt X-ca-n-X
   963      962      965      970         9       180.000       1.88280    2     ; C-N-C-C, prebuilt X-ca-n-X
   964      963      962      965         9       180.000      10.46000    2     ; O-C-N-C, prebuilt X-c-n-X
   965      966      967      968         9       180.000      15.16700    2     ; C-C-C-C, prebuilt X-ca-ca-X
   965      966      967     1039         9       180.000      15.16700    2     ; C-C-C-H, prebuilt X-ca-ca-X
   965      970      969      968         9       180.000      15.16700    2     ; C-C-C-C, prebuilt X-ca-ca-X
   965      970      969     1040         9       180.000      15.16700    2     ; C-C-C-H, prebuilt X-ca-ca-X
   966      965      970      969         9       180.000      15.16700    2     ; C-C-C-C, prebuilt X-ca-ca-X
   966      965      970     1041         9       180.000      15.16700    2     ; C-C-C-H, prebuilt X-ca-ca-X
   966      967      968      969         9       180.000      15.16700    2     ; C-C-C-C, prebuilt X-ca-ca-X
   966      967      968      971         9       180.000      15.16700    2     ; C-C-C-N, prebuilt X-ca-ca-X
   967      966      965      970         9       180.000      15.16700    2     ; C-C-C-C, prebuilt X-ca-ca-X
   967      968      969      970         9       180.000      15.16700    2     ; C-C-C-C, prebuilt X-ca-ca-X
   967      968      969     1040         9       180.000      15.16700    2     ; C-C-C-H, prebuilt X-ca-ca-X
   967      968      971      972         9       180.000       1.88280    2     ; C-C-N-C, prebuilt X-ca-n-X
   967      968      971     1042         9       180.000       1.88280    2     ; C-C-N-H, prebuilt X-ca-n-X
   968      967      966     1038         9       180.000      15.16700    2     ; C-C-C-H, prebuilt X-ca-ca-X
   968      969      970     1041         9       180.000      15.16700    2     ; C-C-C-H, prebuilt X-ca-ca-X
   968      971      972      973         9       180.000      10.46000    2     ; C-N-C-O, prebuilt X-c-n-X
   968      971      972      974         9       180.000      10.46000    2     ; C-N-C-C, prebuilt X-c-n-X
   969      968      967     1039         9       180.000      15.16700    2     ; C-C-C-H, prebuilt X-ca-ca-X
   969      968      971      972         9       180.000       1.88280    2     ; C-C-N-C, prebuilt X-ca-n-X
   969      968      971     1042         9       180.000       1.88280    2     ; C-C-N-H, prebuilt X-ca-n-X
   970      965      966     1038         9       180.000      15.16700    2     ; C-C-C-H, prebuilt X-ca-ca-X
   970      969      968      971         9       180.000      15.16700    2     ; C-C-C-N, prebuilt X-ca-ca-X
   971      968      967     1039         9       180.000      15.16700    2     ; N-C-C-H, prebuilt X-ca-ca-X
   971      968      969     1040         9       180.000      15.16700    2     ; N-C-C-H, prebuilt X-ca-ca-X
   971      972      974      975         9       180.000       4.18400    2     ; N-C-C-C, prebuilt X-c-ca-X
   971      972      974      979         9       180.000       4.18400    2     ; N-C-C-C, prebuilt X-c-ca-X
   972      974      975      976         9       180.000      15.16700    2     ; C-C-C-C, prebuilt X-ca-ca-X
   972      974      975     1043         9       180.000      15.16700    2     ; C-C-C-H, prebuilt X-ca-ca-X
   972      974      979      978         9       180.000      15.16700    2     ; C-C-C-C, prebuilt X-ca-ca-X
   972      974      979      980         9       180.000      15.16700    2     ; C-C-C-N, prebuilt X-ca-ca-X
   973      972      971     1042         9       180.000      10.46000    2     ; O-C-N-H, prebuilt hn-n-c-o
   973      972      971     1042         9         0.000       8.36800    1     ; O-C-N-H, prebuilt hn-n-c-o
   973      972      974      975         9       180.000       4.18400    2     ; O-C-C-C, prebuilt X-c-ca-X
   973      972      974      979         9       180.000       4.18400    2     ; O-C-C-C, prebuilt X-c-ca-X
   974      972      971     1042         9       180.000      10.46000    2     ; C-C-N-H, prebuilt X-c-n-X
   974      975      976      977         9       180.000      15.16700    2     ; C-C-C-C, prebuilt X-ca-ca-X
   974      975      976     1044         9       180.000      15.16700    2     ; C-C-C-H, prebuilt X-ca-ca-X
   974      979      978      977         9       180.000      15.16700    2     ; C-C-C-C, prebuilt X-ca-ca-X
   974      979      978     1045         9       180.000      15.16700    2     ; C-C-C-H, prebuilt X-ca-ca-X
   974      979      980      981         9       180.000       1.88280    2     ; C-C-N-C, prebuilt X-ca-n-X
   974      979      980      985         9       180.000       1.88280    2     ; C-C-N-C, prebuilt X-ca-n-X
   975      974      979      978         9       180.000      15.16700    2     ; C-C-C-C, prebuilt X-ca-ca-X
   975      974      979      980         9       180.000      15.16700    2     ; C-C-C-N, prebuilt X-ca-ca-X
   975      976      977      978         9       180.000      15.16700    2     ; C-C-C-C, prebuilt X-ca-ca-X
   975      976      977     1034         9       180.000      15.16700    2     ; C-C-C-C, prebuilt X-ca-ca-X
   976      975      974      979         9       180.000      15.16700    2     ; C-C-C-C, prebuilt X-ca-ca-X
   976      977      978      979         9       180.000      15.16700    2     ; C-C-C-C, prebuilt X-ca-ca-X
   976      977      978     1045         9       180.000      15.16700    2     ; C-C-C-H, prebuilt X-ca-ca-X
   976      977     1034     1070         9         0.000       0.00000    2     ; C-C-C-H, prebuilt X-c3-ca-X
   976      977     1034     1071         9         0.000       0.00000    2     ; C-C-C-H, prebuilt X-c3-ca-X
   976      977     1034     1072         9         0.000       0.00000    2     ; C-C-C-H, prebuilt X-c3-ca-X
   977      976      975     1043         9       180.000      15.16700    2     ; C-C-C-H, prebuilt X-ca-ca-X
   977      978      979      980         9       180.000      15.16700    2     ; C-C-C-N, prebuilt X-ca-ca-X
   978      977      976     1044         9       180.000      15.16700    2     ; C-C-C-H, prebuilt X-ca-ca-X
   978      977     1034     1070         9         0.000       0.00000    2     ; C-C-C-H, prebuilt X-c3-ca-X
   978      977     1034     1071         9         0.000       0.00000    2     ; C-C-C-H, prebuilt X-c3-ca-X
   978      977     1034     1072         9         0.000       0.00000    2     ; C-C-C-H, prebuilt X-c3-ca-X
   978      979      980      981         9       180.000       1.88280    2     ; C-C-N-C, prebuilt X-ca-n-X
   978      979      980      985         9       180.000       1.88280    2     ; C-C-N-C, prebuilt X-ca-n-X
   979      974      975     1043         9       180.000      15.16700    2     ; C-C-C-H, prebuilt X-ca-ca-X
   979      978      977     1034         9       180.000      15.16700    2     ; C-C-C-C, prebuilt X-ca-ca-X
   979      980      981      982         9       180.000      10.46000    2     ; C-N-C-O, prebuilt X-c-n-X
   979      980      981      983         9       180.000      10.46000    2     ; C-N-C-C, prebuilt X-c-n-X
   979      980      985      984         9       180.000      10.46000    2     ; C-N-C-C, prebuilt X-c-n-X
   979      980      985      986         9       180.000      10.46000    2     ; C-N-C-O, prebuilt X-c-n-X
   980      979      978     1045         9       180.000      15.16700    2     ; N-C-C-H, prebuilt X-ca-ca-X
   980      981      983      984         9       180.000       4.18400    2     ; N-C-C-C, prebuilt X-c-ca-X
   980      981      983      990         9       180.000       4.18400    2     ; N-C-C-C, prebuilt X-c-ca-X
   980      985      984      983         9       180.000       4.18400    2     ; N-C-C-C, prebuilt X-c-ca-X
   980      985      984      987         9       180.000       4.18400    2     ; N-C-C-C, prebuilt X-c-ca-X
   981      980      985      984         9       180.000      10.46000    2     ; C-N-C-C, prebuilt X-c-n-X
   981      980      985      986         9       180.000      10.46000    2     ; C-N-C-O, prebuilt X-c-n-X
   981      983      984      985         9       180.000      15.16700    2     ; C-C-C-C, prebuilt X-ca-ca-X
   981      983      984      987         9       180.000      15.16700    2     ; C-C-C-C, prebuilt X-ca-ca-X
   981      983      990      989         9       180.000      15.16700    2     ; C-C-C-C, prebuilt X-ca-ca-X
   981      983      990     1048         9       180.000      15.16700    2     ; C-C-C-H, prebuilt X-ca-ca-X
   982      981      980      985         9       180.000      10.46000    2     ; O-C-N-C, prebuilt X-c-n-X
   982      981      983      984         9       180.000       4.18400    2     ; O-C-C-C, prebuilt X-c-ca-X
   982      981      983      990         9       180.000       4.18400    2     ; O-C-C-C, prebuilt X-c-ca-X
   983      981      980      985         9       180.000      10.46000    2     ; C-C-N-C, prebuilt X-c-n-X
   983      984      985      986         9       180.000       4.18400    2     ; C-C-C-O, prebuilt X-c-ca-X
   983      984      987      988         9       180.000      15.16700    2     ; C-C-C-C, prebuilt X-ca-ca-X
   983      984      987     1046         9       180.000      15.16700    2     ; C-C-C-H, prebuilt X-ca-ca-X
   983      990      989      988         9       180.000      15.16700    2     ; C-C-C-C, prebuilt X-ca-ca-X
   983      990      989     1047         9       180.000      15.16700    2     ; C-C-C-H, prebuilt X-ca-ca-X
   984      983      990      989         9       180.000      15.16700    2     ; C-C-C-C, prebuilt X-ca-ca-X
   984      983      990     1048         9       180.000      15.16700    2     ; C-C-C-H, prebuilt X-ca-ca-X
   984      987      988      989         9       180.000      15.16700    2     ; C-C-C-C, prebuilt X-ca-ca-X
   984      987      988      991         9       180.000      15.16700    2     ; C-C-C-C, prebuilt X-ca-ca-X
   985      984      983      990         9       180.000      15.16700    2     ; C-C-C-C, prebuilt X-ca-ca-X
   985      984      987      988         9       180.000      15.16700    2     ; C-C-C-C, prebuilt X-ca-ca-X
   985      984      987     1046         9       180.000      15.16700    2     ; C-C-C-H, prebuilt X-ca-ca-X
   986      985      984      987         9       180.000       4.18400    2     ; O-C-C-C, prebuilt X-c-ca-X
   987      984      983      990         9       180.000      15.16700    2     ; C-C-C-C, prebuilt X-ca-ca-X
   987      988      989      990         9       180.000      15.16700    2     ; C-C-C-C, prebuilt X-ca-ca-X
   987      988      989     1047         9       180.000      15.16700    2     ; C-C-C-H, prebuilt X-ca-ca-X
   987      988      991      992         9       180.000       4.18400    2     ; C-C-C-O, prebuilt X-c-ca-X
   987      988      991      993         9       180.000       4.18400    2     ; C-C-C-N, prebuilt X-c-ca-X
   988      989      990     1048         9       180.000      15.16700    2     ; C-C-C-H, prebuilt X-ca-ca-X
   988      991      993      994         9       180.000      10.46000    2     ; C-C-N-C, prebuilt X-c-n-X
   988      991      993     1049         9       180.000      10.46000    2     ; C-C-N-H, prebuilt X-c-n-X
   989      988      987     1046         9       180.000      15.16700    2     ; C-C-C-H, prebuilt X-ca-ca-X
   989      988      991      992         9       180.000       4.18400    2     ; C-C-C-O, prebuilt X-c-ca-X
   989      988      991      993         9       180.000       4.18400    2     ; C-C-C-N, prebuilt X-c-ca-X
   990      989      988      991         9       180.000      15.16700    2     ; C-C-C-C, prebuilt X-ca-ca-X
   991      988      987     1046         9       180.000      15.16700    2     ; C-C-C-H, prebuilt X-ca-ca-X
   991      988      989     1047         9       180.000      15.16700    2     ; C-C-C-H, prebuilt X-ca-ca-X
   991      993      994      995         9       180.000       1.88280    2     ; C-N-C-C, prebuilt X-ca-n-X
   991      993      994      999         9       180.000       1.88280    2     ; C-N-C-C, prebuilt X-ca-n-X
   992      991      993      994         9       180.000      10.46000    2     ; O-C-N-C, prebuilt X-c-n-X
   992      991      993     1049         9       180.000      10.46000    2     ; O-C-N-H, prebuilt hn-n-c-o
   992      991      993     1049         9         0.000       8.36800    1     ; O-C-N-H, prebuilt hn-n-c-o
   993      994      995      996         9       180.000      15.16700    2     ; N-C-C-C, prebuilt X-ca-ca-X
   993      994      995     1050         9       180.000      15.16700    2     ; N-C-C-H, prebuilt X-ca-ca-X
   993      994      999      998         9       180.000      15.16700    2     ; N-C-C-C, prebuilt X-ca-ca-X
   993      994      999     1053         9       180.000      15.16700    2     ; N-C-C-H, prebuilt X-ca-ca-X
   994      995      996      997         9       180.000      15.16700    2     ; C-C-C-C, prebuilt X-ca-ca-X
   994      995      996     1051         9       180.000      15.16700    2     ; C-C-C-H, prebuilt X-ca-ca-X
   994      999      998      997         9       180.000      15.16700    2     ; C-C-C-C, prebuilt X-ca-ca-X
   994      999      998     1052         9       180.000      15.16700    2     ; C-C-C-H, prebuilt X-ca-ca-X
   995      994      993     1049         9       180.000       1.88280    2     ; C-C-N-H, prebuilt X-ca-n-X
   995      994      999      998         9       180.000      15.16700    2     ; C-C-C-C, prebuilt X-ca-ca-X
   995      994      999     1053         9       180.000      15.16700    2     ; C-C-C-H, prebuilt X-ca-ca-X
   995      996      997      998         9       180.000      15.16700    2     ; C-C-C-C, prebuilt X-ca-ca-X
   995      996      997     1000         9       180.000      15.16700    2     ; C-C-C-O, prebuilt X-ca-ca-X
   996      995      994      999         9       180.000      15.16700    2     ; C-C-C-C, prebuilt X-ca-ca-X
   996      997      998      999         9       180.000      15.16700    2     ; C-C-C-C, prebuilt X-ca-ca-X
   996      997      998     1052         9       180.000      15.16700    2     ; C-C-C-H, prebuilt X-ca-ca-X
   996      997     1000     1001         9       180.000       3.76560    2     ; C-C-O-C, prebuilt X-ca-os-X
   997      996      995     1050         9       180.000      15.16700    2     ; C-C-C-H, prebuilt X-ca-ca-X
   997      998      999     1053         9       180.000      15.16700    2     ; C-C-C-H, prebuilt X-ca-ca-X
   997     1000     1001     1002         9       180.000       3.76560    2     ; C-O-C-C, prebuilt X-ca-os-X
   997     1000     1001     1006         9       180.000       3.76560    2     ; C-O-C-C, prebuilt X-ca-os-X
   998      997      996     1051         9       180.000      15.16700    2     ; C-C-C-H, prebuilt X-ca-ca-X
   998      997     1000     1001         9       180.000       3.76560    2     ; C-C-O-C, prebuilt X-ca-os-X
   999      994      993     1049         9       180.000       1.88280    2     ; C-C-N-H, prebuilt X-ca-n-X
   999      994      995     1050         9       180.000      15.16700    2     ; C-C-C-H, prebuilt X-ca-ca-X
   999      998      997     1000         9       180.000      15.16700    2     ; C-C-C-O, prebuilt X-ca-ca-X
  1000      997      996     1051         9       180.000      15.16700    2     ; O-C-C-H, prebuilt X-ca-ca-X
  1000      997      998     1052         9       180.000      15.16700    2     ; O-C-C-H, prebuilt X-ca-ca-X
  1000     1001     1002     1003         9       180.000      15.16700    2     ; O-C-C-C, prebuilt X-ca-ca-X
  1000     1001     1002     1054         9       180.000      15.16700    2     ; O-C-C-H, prebuilt X-ca-ca-X
  1000     1001     1006     1005         9       180.000      15.16700    2     ; O-C-C-C, prebuilt X-ca-ca-X
  1000     1001     1006     1007         9       180.000      15.16700    2     ; O-C-C-O, prebuilt X-ca-ca-X
  1001     1002     1003     1004         9       180.000      15.16700    2     ; C-C-C-C, prebuilt X-ca-ca-X
  1001     1002     1003     1055         9       180.000      15.16700    2     ; C-C-C-H, prebuilt X-ca-ca-X
  1001     1006     1005     1004         9       180.000      15.16700    2     ; C-C-C-C, prebuilt X-ca-ca-X
  1001     1006     1005     1057         9       180.000      15.16700    2     ; C-C-C-H, prebuilt X-ca-ca-X
  1001     1006     1007     1008         9       180.000       3.76560    2     ; C-C-O-C, prebuilt X-ca-os-X
  1002     1001     1006     1005         9       180.000      15.16700    2     ; C-C-C-C, prebuilt X-ca-ca-X
  1002     1001     1006     1007         9       180.000      15.16700    2     ; C-C-C-O, prebuilt X-ca-ca-X
  1002     1003     1004     1005         9       180.000      15.16700    2     ; C-C-C-C, prebuilt X-ca-ca-X
  1002     1003     1004     1056         9       180.000      15.16700    2     ; C-C-C-H, prebuilt X-ca-ca-X
  1003     1002     1001     1006         9       180.000      15.16700    2     ; C-C-C-C, prebuilt X-ca-ca-X
  1003     1004     1005     1006         9       180.000      15.16700    2     ; C-C-C-C, prebuilt X-ca-ca-X
  1003     1004     1005     1057         9       180.000      15.16700    2     ; C-C-C-H, prebuilt X-ca-ca-X
  1004     1003     1002     1054         9       180.000      15.16700    2     ; C-C-C-H, prebuilt X-ca-ca-X
  1004     1005     1006     1007         9       180.000      15.16700    2     ; C-C-C-O, prebuilt X-ca-ca-X
  1005     1004     1003     1055         9       180.000      15.16700    2     ; C-C-C-H, prebuilt X-ca-ca-X
  1005     1006     1007     1008         9       180.000       3.76560    2     ; C-C-O-C, prebuilt X-ca-os-X
  1006     1001     1002     1054         9       180.000      15.16700    2     ; C-C-C-H, prebuilt X-ca-ca-X
  1006     1005     1004     1056         9       180.000      15.16700    2     ; C-C-C-H, prebuilt X-ca-ca-X
  1006     1007     1008     1009         9       180.000       3.76560    2     ; C-O-C-C, prebuilt X-ca-os-X
  1006     1007     1008     1013         9       180.000       3.76560    2     ; C-O-C-C, prebuilt X-ca-os-X
  1007     1006     1005     1057         9       180.000      15.16700    2     ; O-C-C-H, prebuilt X-ca-ca-X
  1007     1008     1009     1010         9       180.000      15.16700    2     ; O-C-C-C, prebuilt X-ca-ca-X
  1007     1008     1009     1058         9       180.000      15.16700    2     ; O-C-C-H, prebuilt X-ca-ca-X
  1007     1008     1013     1012         9       180.000      15.16700    2     ; O-C-C-C, prebuilt X-ca-ca-X
  1007     1008     1013     1061         9       180.000      15.16700    2     ; O-C-C-H, prebuilt X-ca-ca-X
  1008     1009     1010     1011         9       180.000      15.16700    2     ; C-C-C-C, prebuilt X-ca-ca-X
  1008     1009     1010     1059         9       180.000      15.16700    2     ; C-C-C-H, prebuilt X-ca-ca-X
  1008     1013     1012     1011         9       180.000      15.16700    2     ; C-C-C-C, prebuilt X-ca-ca-X
  1008     1013     1012     1060         9       180.000      15.16700    2     ; C-C-C-H, prebuilt X-ca-ca-X
  1009     1008     1013     1012         9       180.000      15.16700    2     ; C-C-C-C, prebuilt X-ca-ca-X
  1009     1008     1013     1061         9       180.000      15.16700    2     ; C-C-C-H, prebuilt X-ca-ca-X
  1009     1010     1011     1012         9       180.000      15.16700    2     ; C-C-C-C, prebuilt X-ca-ca-X
  1009     1010     1011     1014         9       180.000      15.16700    2     ; C-C-C-N, prebuilt X-ca-ca-X
  1010     1009     1008     1013         9       180.000      15.16700    2     ; C-C-C-C, prebuilt X-ca-ca-X
  1010     1011     1012     1013         9       180.000      15.16700    2     ; C-C-C-C, prebuilt X-ca-ca-X
  1010     1011     1012     1060         9       180.000      15.16700    2     ; C-C-C-H, prebuilt X-ca-ca-X
  1010     1011     1014     1015         9       180.000       1.88280    2     ; C-C-N-C, prebuilt X-ca-n-X
  1010     1011     1014     1062         9       180.000       1.88280    2     ; C-C-N-H, prebuilt X-ca-n-X
  1011     1010     1009     1058         9       180.000      15.16700    2     ; C-C-C-H, prebuilt X-ca-ca-X
  1011     1012     1013     1061         9       180.000      15.16700    2     ; C-C-C-H, prebuilt X-ca-ca-X
  1011     1014     1015     1016         9       180.000      10.46000    2     ; C-N-C-O, prebuilt X-c-n-X
  1011     1014     1015     1017         9       180.000      10.46000    2     ; C-N-C-C, prebuilt X-c-n-X
  1012     1011     1010     1059         9       180.000      15.16700    2     ; C-C-C-H, prebuilt X-ca-ca-X
  1012     1011     1014     1015         9       180.000       1.88280    2     ; C-C-N-C, prebuilt X-ca-n-X
  1012     1011     1014     1062         9       180.000       1.88280    2     ; C-C-N-H, prebuilt X-ca-n-X
  1013     1008     1009     1058         9       180.000      15.16700    2     ; C-C-C-H, prebuilt X-ca-ca-X
  1013     1012     1011     1014         9       180.000      15.16700    2     ; C-C-C-N, prebuilt X-ca-ca-X
  1014     1011     1010     1059         9       180.000      15.16700    2     ; N-C-C-H, prebuilt X-ca-ca-X
  1014     1011     1012     1060         9       180.000      15.16700    2     ; N-C-C-H, prebuilt X-ca-ca-X
  1014     1015     1017     1018         9       180.000       4.18400    2     ; N-C-C-C, prebuilt X-c-ca-X
  1014     1015     1017     1022         9       180.000       4.18400    2     ; N-C-C-C, prebuilt X-c-ca-X
  1015     1017     1018     1019         9       180.000      15.16700    2     ; C-C-C-C, prebuilt X-ca-ca-X
  1015     1017     1018     1063         9       180.000      15.16700    2     ; C-C-C-H, prebuilt X-ca-ca-X
  1015     1017     1022     1021         9       180.000      15.16700    2     ; C-C-C-C, prebuilt X-ca-ca-X
  1015     1017     1022     1066         9       180.000      15.16700    2     ; C-C-C-H, prebuilt X-ca-ca-X
  1016     1015     1014     1062         9       180.000      10.46000    2     ; O-C-N-H, prebuilt hn-n-c-o
  1016     1015     1014     1062         9         0.000       8.36800    1     ; O-C-N-H, prebuilt hn-n-c-o
  1016     1015     1017     1018         9       180.000       4.18400    2     ; O-C-C-C, prebuilt X-c-ca-X
  1016     1015     1017     1022         9       180.000       4.18400    2     ; O-C-C-C, prebuilt X-c-ca-X
  1017     1015     1014     1062         9       180.000      10.46000    2     ; C-C-N-H, prebuilt X-c-n-X
  1017     1018     1019     1020         9       180.000      15.16700    2     ; C-C-C-C, prebuilt X-ca-ca-X
  1017     1018     1019     1064         9       180.000      15.16700    2     ; C-C-C-H, prebuilt X-ca-ca-X
  1017     1022     1021     1020         9       180.000      15.16700    2     ; C-C-C-C, prebuilt X-ca-ca-X
  1017     1022     1021     1065         9       180.000      15.16700    2     ; C-C-C-H, prebuilt X-ca-ca-X
  1018     1017     1022     1021         9       180.000      15.16700    2     ; C-C-C-C, prebuilt X-ca-ca-X
  1018     1017     1022     1066         9       180.000      15.16700    2     ; C-C-C-H, prebuilt X-ca-ca-X
  1018     1019     1020     1021         9       180.000      15.16700    2     ; C-C-C-C, prebuilt X-ca-ca-X
  1018     1019     1020     1023         9       180.000      15.16700    2     ; C-C-C-N, prebuilt X-ca-ca-X
  1019     1018     1017     1022         9       180.000      15.16700    2     ; C-C-C-C, prebuilt X-ca-ca-X
  1019     1020     1021     1022         9       180.000      15.16700    2     ; C-C-C-C, prebuilt X-ca-ca-X
  1019     1020     1021     1065         9       180.000      15.16700    2     ; C-C-C-H, prebuilt X-ca-ca-X
  1019     1020     1023     1024         9       180.000       1.88280    2     ; C-C-N-C, prebuilt X-ca-n-X
  1019     1020     1023     1028         9       180.000       1.88280    2     ; C-C-N-C, prebuilt X-ca-n-X
  1020     1019     1018     1063         9       180.000      15.16700    2     ; C-C-C-H, prebuilt X-ca-ca-X
  1020     1021     1022     1066         9       180.000      15.16700    2     ; C-C-C-H, prebuilt X-ca-ca-X
  1020     1023     1024     1025         9       180.000      10.46000    2     ; C-N-C-O, prebuilt X-c-n-X
  1020     1023     1024     1026         9       180.000      10.46000    2     ; C-N-C-C, prebuilt X-c-n-X
  1020     1023     1028     1027         9       180.000      10.46000    2     ; C-N-C-C, prebuilt X-c-n-X
  1020     1023     1028     1029         9       180.000      10.46000    2     ; C-N-C-O, prebuilt X-c-n-X
  1021     1020     1019     1064         9       180.000      15.16700    2     ; C-C-C-H, prebuilt X-ca-ca-X
  1021     1020     1023     1024         9       180.000       1.88280    2     ; C-C-N-C, prebuilt X-ca-n-X
  1021     1020     1023     1028         9       180.000       1.88280    2     ; C-C-N-C, prebuilt X-ca-n-X
  1022     1017     1018     1063         9       180.000      15.16700    2     ; C-C-C-H, prebuilt X-ca-ca-X
  1022     1021     1020     1023         9       180.000      15.16700    2     ; C-C-C-N, prebuilt X-ca-ca-X
  1023     1020     1019     1064         9       180.000      15.16700    2     ; N-C-C-H, prebuilt X-ca-ca-X
  1023     1020     1021     1065         9       180.000      15.16700    2     ; N-C-C-H, prebuilt X-ca-ca-X
  1023     1024     1026     1027         9       180.000       4.18400    2     ; N-C-C-C, prebuilt X-c-ca-X
  1023     1024     1026     1033         9       180.000       4.18400    2     ; N-C-C-C, prebuilt X-c-ca-X
  1023     1028     1027     1026         9       180.000       4.18400    2     ; N-C-C-C, prebuilt X-c-ca-X
  1023     1028     1027     1030         9       180.000       4.18400    2     ; N-C-C-C, prebuilt X-c-ca-X
  1024     1023     1028     1027         9       180.000      10.46000    2     ; C-N-C-C, prebuilt X-c-n-X
  1024     1023     1028     1029         9       180.000      10.46000    2     ; C-N-C-O, prebuilt X-c-n-X
  1024     1026     1027     1028         9       180.000      15.16700    2     ; C-C-C-C, prebuilt X-ca-ca-X
  1024     1026     1027     1030         9       180.000      15.16700    2     ; C-C-C-C, prebuilt X-ca-ca-X
  1024     1026     1033     1032         9       180.000      15.16700    2     ; C-C-C-C, prebuilt X-ca-ca-X
  1024     1026     1033     1069         9       180.000      15.16700    2     ; C-C-C-H, prebuilt X-ca-ca-X
  1025     1024     1023     1028         9       180.000      10.46000    2     ; O-C-N-C, prebuilt X-c-n-X
  1025     1024     1026     1027         9       180.000       4.18400    2     ; O-C-C-C, prebuilt X-c-ca-X
  1025     1024     1026     1033         9       180.000       4.18400    2     ; O-C-C-C, prebuilt X-c-ca-X
  1026     1024     1023     1028         9       180.000      10.46000    2     ; C-C-N-C, prebuilt X-c-n-X
  1026     1027     1028     1029         9       180.000       4.18400    2     ; C-C-C-O, prebuilt X-c-ca-X
  1026     1027     1030     1031         9       180.000      15.16700    2     ; C-C-C-C, prebuilt X-ca-ca-X
  1026     1027     1030     1067         9       180.000      15.16700    2     ; C-C-C-H, prebuilt X-ca-ca-X
  1026     1033     1032     1031         9       180.000      15.16700    2     ; C-C-C-C, prebuilt X-ca-ca-X
  1026     1033     1032     1068         9       180.000      15.16700    2     ; C-C-C-H, prebuilt X-ca-ca-X
  1027     1026     1033     1032         9       180.000      15.16700    2     ; C-C-C-C, prebuilt X-ca-ca-X
  1027     1026     1033     1069         9       180.000      15.16700    2     ; C-C-C-H, prebuilt X-ca-ca-X
  1027     1030     1031     1032         9       180.000      15.16700    2     ; C-C-C-C, prebuilt X-ca-cp-X
  1027     1030     1031     1073         9       180.000      15.16700    2     ; C-C-C-C, prebuilt X-ca-cp-X
  1028     1027     1026     1033         9       180.000      15.16700    2     ; C-C-C-C, prebuilt X-ca-ca-X
  1028     1027     1030     1031         9       180.000      15.16700    2     ; C-C-C-C, prebuilt X-ca-ca-X
  1028     1027     1030     1067         9       180.000      15.16700    2     ; C-C-C-H, prebuilt X-ca-ca-X
  1029     1028     1027     1030         9       180.000       4.18400    2     ; O-C-C-C, prebuilt X-c-ca-X
  1030     1027     1026     1033         9       180.000      15.16700    2     ; C-C-C-C, prebuilt X-ca-ca-X
  1030     1031     1032     1033         9       180.000      15.16700    2     ; C-C-C-C, prebuilt X-ca-cp-X
  1030     1031     1032     1068         9       180.000      15.16700    2     ; C-C-C-H, prebuilt X-ca-cp-X
  1030     1031     1073     1074         9       180.000       4.18400    2     ; C-C-C-C, prebuilt X-cp-cp-X
  1030     1031     1073     1078         9       180.000       4.18400    2     ; C-C-C-C, prebuilt X-cp-cp-X
  1031     1032     1033     1069         9       180.000      15.16700    2     ; C-C-C-H, prebuilt X-ca-ca-X
  1031     1073     1074     1075         9       180.000      15.16700    2     ; C-C-C-C, prebuilt X-ca-cp-X
  1031     1073     1074     1154         9       180.000      15.16700    2     ; C-C-C-H, prebuilt X-ca-cp-X
  1031     1073     1078     1077         9       180.000      15.16700    2     ; C-C-C-C, prebuilt X-ca-cp-X
  1031     1073     1078     1156         9       180.000      15.16700    2     ; C-C-C-H, prebuilt X-ca-cp-X
  1032     1031     1030     1067         9       180.000      15.16700    2     ; C-C-C-H, prebuilt X-ca-cp-X
  1032     1031     1073     1074         9       180.000       4.18400    2     ; C-C-C-C, prebuilt X-cp-cp-X
  1032     1031     1073     1078         9       180.000       4.18400    2     ; C-C-C-C, prebuilt X-cp-cp-X
  1033     1032     1031     1073         9       180.000      15.16700    2     ; C-C-C-C, prebuilt X-ca-cp-X
  1034      977      976     1044         9       180.000      15.16700    2     ; C-C-C-H, prebuilt X-ca-ca-X
  1034      977      978     1045         9       180.000      15.16700    2     ; C-C-C-H, prebuilt X-ca-ca-X
  1035      955      956     1036         9       180.000      15.16700    2     ; H-C-C-H, prebuilt X-ca-ca-X
  1038      966      967     1039         9       180.000      15.16700    2     ; H-C-C-H, prebuilt X-ca-ca-X
  1040      969      970     1041         9       180.000      15.16700    2     ; H-C-C-H, prebuilt X-ca-ca-X
  1043      975      976     1044         9       180.000      15.16700    2     ; H-C-C-H, prebuilt X-ca-ca-X
  1047      989      990     1048         9       180.000      15.16700    2     ; H-C-C-H, prebuilt X-ca-ca-X
  1050      995      996     1051         9       180.000      15.16700    2     ; H-C-C-H, prebuilt X-ca-ca-X
  1052      998      999     1053         9       180.000      15.16700    2     ; H-C-C-H, prebuilt X-ca-ca-X
  1054     1002     1003     1055         9       180.000      15.16700    2     ; H-C-C-H, prebuilt X-ca-ca-X
  1055     1003     1004     1056         9       180.000      15.16700    2     ; H-C-C-H, prebuilt X-ca-ca-X
  1056     1004     1005     1057         9       180.000      15.16700    2     ; H-C-C-H, prebuilt X-ca-ca-X
  1058     1009     1010     1059         9       180.000      15.16700    2     ; H-C-C-H, prebuilt X-ca-ca-X
  1060     1012     1013     1061         9       180.000      15.16700    2     ; H-C-C-H, prebuilt X-ca-ca-X
  1063     1018     1019     1064         9       180.000      15.16700    2     ; H-C-C-H, prebuilt X-ca-ca-X
  1065     1021     1022     1066         9       180.000      15.16700    2     ; H-C-C-H, prebuilt X-ca-ca-X
  1067     1030     1031     1073         9       180.000      15.16700    2     ; H-C-C-C, prebuilt X-ca-cp-X
  1068     1032     1031     1073         9       180.000      15.16700    2     ; H-C-C-C, prebuilt X-ca-cp-X
  1068     1032     1033     1069         9       180.000      15.16700    2     ; H-C-C-H, prebuilt X-ca-ca-X
  1073     1074     1075     1076         9       180.000      15.16700    2     ; C-C-C-C, prebuilt X-ca-ca-X
  1073     1074     1075     1155         9       180.000      15.16700    2     ; C-C-C-H, prebuilt X-ca-ca-X
  1073     1078     1077     1076         9       180.000      15.16700    2     ; C-C-C-C, prebuilt X-ca-ca-X
  1073     1078     1077     1079         9       180.000      15.16700    2     ; C-C-C-C, prebuilt X-ca-ca-X
  1074     1073     1078     1077         9       180.000      15.16700    2     ; C-C-C-C, prebuilt X-ca-cp-X
  1074     1073     1078     1156         9       180.000      15.16700    2     ; C-C-C-H, prebuilt X-ca-cp-X
  1074     1075     1076     1077         9       180.000      15.16700    2     ; C-C-C-C, prebuilt X-ca-ca-X
  1074     1075     1076     1082         9       180.000      15.16700    2     ; C-C-C-C, prebuilt X-ca-ca-X
  1075     1074     1073     1078         9       180.000      15.16700    2     ; C-C-C-C, prebuilt X-ca-cp-X
  1075     1076     1077     1078         9       180.000      15.16700    2     ; C-C-C-C, prebuilt X-ca-ca-X
  1075     1076     1077     1079         9       180.000      15.16700    2     ; C-C-C-C, prebuilt X-ca-ca-X
  1075     1076     1082     1081         9       180.000       4.18400    2     ; C-C-C-N, prebuilt X-c-ca-X
  1075     1076     1082     1083         9       180.000       4.18400    2     ; C-C-C-O, prebuilt X-c-ca-X
  1076     1075     1074     1154         9       180.000      15.16700    2     ; C-C-C-H, prebuilt X-ca-ca-X
  1076     1077     1078     1156         9       180.000      15.16700    2     ; C-C-C-H, prebuilt X-ca-ca-X
  1076     1077     1079     1080         9       180.000       4.18400    2     ; C-C-C-O, prebuilt X-c-ca-X
  1076     1077     1079     1081         9       180.000       4.18400    2     ; C-C-C-N, prebuilt X-c-ca-X
  1076     1082     1081     1079         9       180.000      10.46000    2     ; C-C-N-C, prebuilt X-c-n-X
  1076     1082     1081     1084         9       180.000      10.46000    2     ; C-C-N-C, prebuilt X-c-n-X
  1077     1076     1075     1155         9       180.000      15.16700    2     ; C-C-C-H, prebuilt X-ca-ca-X
  1077     1076     1082     1081         9       180.000       4.18400    2     ; C-C-C-N, prebuilt X-c-ca-X
  1077     1076     1082     1083         9       180.000       4.18400    2     ; C-C-C-O, prebuilt X-c-ca-X
  1077     1079     1081     1082         9       180.000      10.46000    2     ; C-C-N-C, prebuilt X-c-n-X
  1077     1079     1081     1084         9       180.000      10.46000    2     ; C-C-N-C, prebuilt X-c-n-X
  1078     1073     1074     1154         9       180.000      15.16700    2     ; C-C-C-H, prebuilt X-ca-cp-X
  1078     1077     1076     1082         9       180.000      15.16700    2     ; C-C-C-C, prebuilt X-ca-ca-X
  1078     1077     1079     1080         9       180.000       4.18400    2     ; C-C-C-O, prebuilt X-c-ca-X
  1078     1077     1079     1081         9       180.000       4.18400    2     ; C-C-C-N, prebuilt X-c-ca-X
  1079     1077     1076     1082         9       180.000      15.16700    2     ; C-C-C-C, prebuilt X-ca-ca-X
  1079     1077     1078     1156         9       180.000      15.16700    2     ; C-C-C-H, prebuilt X-ca-ca-X
  1079     1081     1082     1083         9       180.000      10.46000    2     ; C-N-C-O, prebuilt X-c-n-X
  1079     1081     1084     1085         9       180.000       1.88280    2     ; C-N-C-C, prebuilt X-ca-n-X
  1079     1081     1084     1089         9       180.000       1.88280    2     ; C-N-C-C, prebuilt X-ca-n-X
  1080     1079     1081     1082         9       180.000      10.46000    2     ; O-C-N-C, prebuilt X-c-n-X
  1080     1079     1081     1084         9       180.000      10.46000    2     ; O-C-N-C, prebuilt X-c-n-X
  1081     1084     1085     1086         9       180.000      15.16700    2     ; N-C-C-C, prebuilt X-ca-ca-X
  1081     1084     1085     1157         9       180.000      15.16700    2     ; N-C-C-H, prebuilt X-ca-ca-X
  1081     1084     1089     1088         9       180.000      15.16700    2     ; N-C-C-C, prebuilt X-ca-ca-X
  1081     1084     1089     1160         9       180.000      15.16700    2     ; N-C-C-H, prebuilt X-ca-ca-X
  1082     1076     1075     1155         9       180.000      15.16700    2     ; C-C-C-H, prebuilt X-ca-ca-X
  1082     1081     1084     1085         9       180.000       1.88280    2     ; C-N-C-C, prebuilt X-ca-n-X
  1082     1081     1084     1089         9       180.000       1.88280    2     ; C-N-C-C, prebuilt X-ca-n-X
  1083     1082     1081     1084         9       180.000      10.46000    2     ; O-C-N-C, prebuilt X-c-n-X
  1084     1085     1086     1087         9       180.000      15.16700    2     ; C-C-C-C, prebuilt X-ca-ca-X
  1084     1085     1086     1158         9       180.000      15.16700    2     ; C-C-C-H, prebuilt X-ca-ca-X
  1084     1089     1088     1087         9       180.000      15.16700    2     ; C-C-C-C, prebuilt X-ca-ca-X
  1084     1089     1088     1159         9       180.000      15.16700    2     ; C-C-C-H, prebuilt X-ca-ca-X
  1085     1084     1089     1088         9       180.000      15.16700    2     ; C-C-C-C, prebuilt X-ca-ca-X
  1085     1084     1089     1160         9       180.000      15.16700    2     ; C-C-C-H, prebuilt X-ca-ca-X
  1085     1086     1087     1088         9       180.000      15.16700    2     ; C-C-C-C, prebuilt X-ca-ca-X
  1085     1086     1087     1090         9       180.000      15.16700    2     ; C-C-C-N, prebuilt X-ca-ca-X
  1086     1085     1084     1089         9       180.000      15.16700    2     ; C-C-C-C, prebuilt X-ca-ca-X
  1086     1087     1088     1089         9       180.000      15.16700    2     ; C-C-C-C, prebuilt X-ca-ca-X
  1086     1087     1088     1159         9       180.000      15.16700    2     ; C-C-C-H, prebuilt X-ca-ca-X
  1086     1087     1090     1091         9       180.000       1.88280    2     ; C-C-N-C, prebuilt X-ca-n-X
  1086     1087     1090     1161         9       180.000       1.88280    2     ; C-C-N-H, prebuilt X-ca-n-X
  1087     1086     1085     1157         9       180.000      15.16700    2     ; C-C-C-H, prebuilt X-ca-ca-X
  1087     1088     1089     1160         9       180.000      15.16700    2     ; C-C-C-H, prebuilt X-ca-ca-X
  1087     1090     1091     1092         9       180.000      10.46000    2     ; C-N-C-O, prebuilt X-c-n-X
  1087     1090     1091     1093         9       180.000      10.46000    2     ; C-N-C-C, prebuilt X-c-n-X
  1088     1087     1086     1158         9       180.000      15.16700    2     ; C-C-C-H, prebuilt X-ca-ca-X
  1088     1087     1090     1091         9       180.000       1.88280    2     ; C-C-N-C, prebuilt X-ca-n-X
  1088     1087     1090     1161         9       180.000       1.88280    2     ; C-C-N-H, prebuilt X-ca-n-X
  1089     1084     1085     1157         9       180.000      15.16700    2     ; C-C-C-H, prebuilt X-ca-ca-X
  1089     1088     1087     1090         9       180.000      15.16700    2     ; C-C-C-N, prebuilt X-ca-ca-X
  1090     1087     1086     1158         9       180.000      15.16700    2     ; N-C-C-H, prebuilt X-ca-ca-X
  1090     1087     1088     1159         9       180.000      15.16700    2     ; N-C-C-H, prebuilt X-ca-ca-X
  1090     1091     1093     1094         9       180.000       4.18400    2     ; N-C-C-C, prebuilt X-c-ca-X
  1090     1091     1093     1098         9       180.000       4.18400    2     ; N-C-C-C, prebuilt X-c-ca-X
  1091     1093     1094     1095         9       180.000      15.16700    2     ; C-C-C-C, prebuilt X-ca-ca-X
  1091     1093     1094     1162         9       180.000      15.16700    2     ; C-C-C-H, prebuilt X-ca-ca-X
  1091     1093     1098     1097         9       180.000      15.16700    2     ; C-C-C-C, prebuilt X-ca-ca-X
  1091     1093     1098     1099         9       180.000      15.16700    2     ; C-C-C-N, prebuilt X-ca-ca-X
  1092     1091     1090     1161         9       180.000      10.46000    2     ; O-C-N-H, prebuilt hn-n-c-o
  1092     1091     1090     1161         9         0.000       8.36800    1     ; O-C-N-H, prebuilt hn-n-c-o
  1092     1091     1093     1094         9       180.000       4.18400    2     ; O-C-C-C, prebuilt X-c-ca-X
  1092     1091     1093     1098         9       180.000       4.18400    2     ; O-C-C-C, prebuilt X-c-ca-X
  1093     1091     1090     1161         9       180.000      10.46000    2     ; C-C-N-H, prebuilt X-c-n-X
  1093     1094     1095     1096         9       180.000      15.16700    2     ; C-C-C-C, prebuilt X-ca-ca-X
  1093     1094     1095     1163         9       180.000      15.16700    2     ; C-C-C-H, prebuilt X-ca-ca-X
  1093     1098     1097     1096         9       180.000      15.16700    2     ; C-C-C-C, prebuilt X-ca-ca-X
  1093     1098     1097     1164         9       180.000      15.16700    2     ; C-C-C-H, prebuilt X-ca-ca-X
  1093     1098     1099     1100         9       180.000       1.88280    2     ; C-C-N-C, prebuilt X-ca-n-X
  1093     1098     1099     1104         9       180.000       1.88280    2     ; C-C-N-C, prebuilt X-ca-n-X
  1094     1093     1098     1097         9       180.000      15.16700    2     ; C-C-C-C, prebuilt X-ca-ca-X
  1094     1093     1098     1099         9       180.000      15.16700    2     ; C-C-C-N, prebuilt X-ca-ca-X
  1094     1095     1096     1097         9       180.000      15.16700    2     ; C-C-C-C, prebuilt X-ca-ca-X
  1094     1095     1096     1153         9       180.000      15.16700    2     ; C-C-C-C, prebuilt X-ca-ca-X
  1095     1094     1093     1098         9       180.000      15.16700    2     ; C-C-C-C, prebuilt X-ca-ca-X
  1095     1096     1097     1098         9       180.000      15.16700    2     ; C-C-C-C, prebuilt X-ca-ca-X
  1095     1096     1097     1164         9       180.000      15.16700    2     ; C-C-C-H, prebuilt X-ca-ca-X
  1095     1096     1153     1189         9         0.000       0.00000    2     ; C-C-C-H, prebuilt X-c3-ca-X
  1095     1096     1153     1190         9         0.000       0.00000    2     ; C-C-C-H, prebuilt X-c3-ca-X
  1095     1096     1153     1191         9         0.000       0.00000    2     ; C-C-C-H, prebuilt X-c3-ca-X
  1096     1095     1094     1162         9       180.000      15.16700    2     ; C-C-C-H, prebuilt X-ca-ca-X
  1096     1097     1098     1099         9       180.000      15.16700    2     ; C-C-C-N, prebuilt X-ca-ca-X
  1097     1096     1095     1163         9       180.000      15.16700    2     ; C-C-C-H, prebuilt X-ca-ca-X
  1097     1096     1153     1189         9         0.000       0.00000    2     ; C-C-C-H, prebuilt X-c3-ca-X
  1097     1096     1153     1190         9         0.000       0.00000    2     ; C-C-C-H, prebuilt X-c3-ca-X
  1097     1096     1153     1191         9         0.000       0.00000    2     ; C-C-C-H, prebuilt X-c3-ca-X
  1097     1098     1099     1100         9       180.000       1.88280    2     ; C-C-N-C, prebuilt X-ca-n-X
  1097     1098     1099     1104         9       180.000       1.88280    2     ; C-C-N-C, prebuilt X-ca-n-X
  1098     1093     1094     1162         9       180.000      15.16700    2     ; C-C-C-H, prebuilt X-ca-ca-X
  1098     1097     1096     1153         9       180.000      15.16700    2     ; C-C-C-C, prebuilt X-ca-ca-X
  1098     1099     1100     1101         9       180.000      10.46000    2     ; C-N-C-O, prebuilt X-c-n-X
  1098     1099     1100     1102         9       180.000      10.46000    2     ; C-N-C-C, prebuilt X-c-n-X
  1098     1099     1104     1103         9       180.000      10.46000    2     ; C-N-C-C, prebuilt X-c-n-X
  1098     1099     1104     1105         9       180.000      10.46000    2     ; C-N-C-O, prebuilt X-c-n-X
  1099     1098     1097     1164         9       180.000      15.16700    2     ; N-C-C-H, prebuilt X-ca-ca-X
  1099     1100     1102     1103         9       180.000       4.18400    2     ; N-C-C-C, prebuilt X-c-ca-X
  1099     1100     1102     1109         9       180.000       4.18400    2     ; N-C-C-C, prebuilt X-c-ca-X
  1099     1104     1103     1102         9       180.000       4.18400    2     ; N-C-C-C, prebuilt X-c-ca-X
  1099     1104     1103     1106         9       180.000       4.18400    2     ; N-C-C-C, prebuilt X-c-ca-X
  1100     1099     1104     1103         9       180.000      10.46000    2     ; C-N-C-C, prebuilt X-c-n-X
  1100     1099     1104     1105         9       180.000      10.46000    2     ; C-N-C-O, prebuilt X-c-n-X
  1100     1102     1103     1104         9       180.000      15.16700    2     ; C-C-C-C, prebuilt X-ca-ca-X
  1100     1102     1103     1106         9       180.000      15.16700    2     ; C-C-C-C, prebuilt X-ca-ca-X
  1100     1102     1109     1108         9       180.000      15.16700    2     ; C-C-C-C, prebuilt X-ca-ca-X
  1100     1102     1109     1167         9       180.000      15.16700    2     ; C-C-C-H, prebuilt X-ca-ca-X
  1101     1100     1099     1104         9       180.000      10.46000    2     ; O-C-N-C, prebuilt X-c-n-X
  1101     1100     1102     1103         9       180.000       4.18400    2     ; O-C-C-C, prebuilt X-c-ca-X
  1101     1100     1102     1109         9       180.000       4.18400    2     ; O-C-C-C, prebuilt X-c-ca-X
  1102     1100     1099     1104         9       180.000      10.46000    2     ; C-C-N-C, prebuilt X-c-n-X
  1102     1103     1104     1105         9       180.000       4.18400    2     ; C-C-C-O, prebuilt X-c-ca-X
  1102     1103     1106     1107         9       180.000      15.16700    2     ; C-C-C-C, prebuilt X-ca-ca-X
  1102     1103     1106     1165         9       180.000      15.16700    2     ; C-C-C-H, prebuilt X-ca-ca-X
  1102     1109     1108     1107         9       180.000      15.16700    2     ; C-C-C-C, prebuilt X-ca-ca-X
  1102     1109     1108     1166         9       180.000      15.16700    2     ; C-C-C-H, prebuilt X-ca-ca-X
  1103     1102     1109     1108         9       180.000      15.16700    2     ; C-C-C-C, prebuilt X-ca-ca-X
  1103     1102     1109     1167         9       180.000      15.16700    2     ; C-C-C-H, prebuilt X-ca-ca-X
  1103     1106     1107     1108         9       180.000      15.16700    2     ; C-C-C-C, prebuilt X-ca-ca-X
  1103     1106     1107     1110         9       180.000      15.16700    2     ; C-C-C-C, prebuilt X-ca-ca-X
  1104     1103     1102     1109         9       180.000      15.16700    2     ; C-C-C-C, prebuilt X-ca-ca-X
  1104     1103     1106     1107         9       180.000      15.16700    2     ; C-C-C-C, prebuilt X-ca-ca-X
  1104     1103     1106     1165         9       180.000      15.16700    2     ; C-C-C-H, prebuilt X-ca-ca-X
  1105     1104     1103     1106         9       180.000       4.18400    2     ; O-C-C-C, prebuilt X-c-ca-X
  1106     1103     1102     1109         9       180.000      15.16700    2     ; C-C-C-C, prebuilt X-ca-ca-X
  1106     1107     1108     1109         9       180.000      15.16700    2     ; C-C-C-C, prebuilt X-ca-ca-X
  1106     1107     1108     1166         9       180.000      15.16700    2     ; C-C-C-H, prebuilt X-ca-ca-X
  1106     1107     1110     1111         9       180.000       4.18400    2     ; C-C-C-O, prebuilt X-c-ca-X
  1106     1107     1110     1112         9       180.000       4.18400    2     ; C-C-C-N, prebuilt X-c-ca-X
  1107     1108     1109     1167         9       180.000      15.16700    2     ; C-C-C-H, prebuilt X-ca-ca-X
  1107     1110     1112     1113         9       180.000      10.46000    2     ; C-C-N-C, prebuilt X-c-n-X
  1107     1110     1112     1168         9       180.000      10.46000    2     ; C-C-N-H, prebuilt X-c-n-X
  1108     1107     1106     1165         9       180.000      15.16700    2     ; C-C-C-H, prebuilt X-ca-ca-X
  1108     1107     1110     1111         9       180.000       4.18400    2     ; C-C-C-O, prebuilt X-c-ca-X
  1108     1107     1110     1112         9       180.000       4.18400    2     ; C-C-C-N, prebuilt X-c-ca-X
  1109     1108     1107     1110         9       180.000      15.16700    2     ; C-C-C-C, prebuilt X-ca-ca-X
  1110     1107     1106     1165         9       180.000      15.16700    2     ; C-C-C-H, prebuilt X-ca-ca-X
  1110     1107     1108     1166         9       180.000      15.16700    2     ; C-C-C-H, prebuilt X-ca-ca-X
  1110     1112     1113     1114         9       180.000       1.88280    2     ; C-N-C-C, prebuilt X-ca-n-X
  1110     1112     1113     1118         9       180.000       1.88280    2     ; C-N-C-C, prebuilt X-ca-n-X
  1111     1110     1112     1113         9       180.000      10.46000    2     ; O-C-N-C, prebuilt X-c-n-X
  1111     1110     1112     1168         9       180.000      10.46000    2     ; O-C-N-H, prebuilt hn-n-c-o
  1111     1110     1112     1168         9         0.000       8.36800    1     ; O-C-N-H, prebuilt hn-n-c-o
  1112     1113     1114     1115         9       180.000      15.16700    2     ; N-C-C-C, prebuilt X-ca-ca-X
  1112     1113     1114     1169         9       180.000      15.16700    2     ; N-C-C-H, prebuilt X-ca-ca-X
  1112     1113     1118     1117         9       180.000      15.16700    2     ; N-C-C-C, prebuilt X-ca-ca-X
  1112     1113     1118     1172         9       180.000      15.16700    2     ; N-C-C-H, prebuilt X-ca-ca-X
  1113     1114     1115     1116         9       180.000      15.16700    2     ; C-C-C-C, prebuilt X-ca-ca-X
  1113     1114     1115     1170         9       180.000      15.16700    2     ; C-C-C-H, prebuilt X-ca-ca-X
  1113     1118     1117     1116         9       180.000      15.16700    2     ; C-C-C-C, prebuilt X-ca-ca-X
  1113     1118     1117     1171         9       180.000      15.16700    2     ; C-C-C-H, prebuilt X-ca-ca-X
  1114     1113     1112     1168         9       180.000       1.88280    2     ; C-C-N-H, prebuilt X-ca-n-X
  1114     1113     1118     1117         9       180.000      15.16700    2     ; C-C-C-C, prebuilt X-ca-ca-X
  1114     1113     1118     1172         9       180.000      15.16700    2     ; C-C-C-H, prebuilt X-ca-ca-X
  1114     1115     1116     1117         9       180.000      15.16700    2     ; C-C-C-C, prebuilt X-ca-ca-X
  1114     1115     1116     1119         9       180.000      15.16700    2     ; C-C-C-O, prebuilt X-ca-ca-X
  1115     1114     1113     1118         9       180.000      15.16700    2     ; C-C-C-C, prebuilt X-ca-ca-X
  1115     1116     1117     1118         9       180.000      15.16700    2     ; C-C-C-C, prebuilt X-ca-ca-X
  1115     1116     1117     1171         9       180.000      15.16700    2     ; C-C-C-H, prebuilt X-ca-ca-X
  1115     1116     1119     1120         9       180.000       3.76560    2     ; C-C-O-C, prebuilt X-ca-os-X
  1116     1115     1114     1169         9       180.000      15.16700    2     ; C-C-C-H, prebuilt X-ca-ca-X
  1116     1117     1118     1172         9       180.000      15.16700    2     ; C-C-C-H, prebuilt X-ca-ca-X
  1116     1119     1120     1121         9       180.000       3.76560    2     ; C-O-C-C, prebuilt X-ca-os-X
  1116     1119     1120     1125         9       180.000       3.76560    2     ; C-O-C-C, prebuilt X-ca-os-X
  1117     1116     1115     1170         9       180.000      15.16700    2     ; C-C-C-H, prebuilt X-ca-ca-X
  1117     1116     1119     1120         9       180.000       3.76560    2     ; C-C-O-C, prebuilt X-ca-os-X
  1118     1113     1112     1168         9       180.000       1.88280    2     ; C-C-N-H, prebuilt X-ca-n-X
  1118     1113     1114     1169         9       180.000      15.16700    2     ; C-C-C-H, prebuilt X-ca-ca-X
  1118     1117     1116     1119         9       180.000      15.16700    2     ; C-C-C-O, prebuilt X-ca-ca-X
  1119     1116     1115     1170         9       180.000      15.16700    2     ; O-C-C-H, prebuilt X-ca-ca-X
  1119     1116     1117     1171         9       180.000      15.16700    2     ; O-C-C-H, prebuilt X-ca-ca-X
  1119     1120     1121     1122         9       180.000      15.16700    2     ; O-C-C-C, prebuilt X-ca-ca-X
  1119     1120     1121     1173         9       180.000      15.16700    2     ; O-C-C-H, prebuilt X-ca-ca-X
  1119     1120     1125     1124         9       180.000      15.16700    2     ; O-C-C-C, prebuilt X-ca-ca-X
  1119     1120     1125     1126         9       180.000      15.16700    2     ; O-C-C-O, prebuilt X-ca-ca-X
  1120     1121     1122     1123         9       180.000      15.16700    2     ; C-C-C-C, prebuilt X-ca-ca-X
  1120     1121     1122     1174         9       180.000      15.16700    2     ; C-C-C-H, prebuilt X-ca-ca-X
  1120     1125     1124     1123         9       180.000      15.16700    2     ; C-C-C-C, prebuilt X-ca-ca-X
  1120     1125     1124     1176         9       180.000      15.16700    2     ; C-C-C-H, prebuilt X-ca-ca-X
  1120     1125     1126     1127         9       180.000       3.76560    2     ; C-C-O-C, prebuilt X-ca-os-X
  1121     1120     1125     1124         9       180.000      15.16700    2     ; C-C-C-C, prebuilt X-ca-ca-X
  1121     1120     1125     1126         9       180.000      15.16700    2     ; C-C-C-O, prebuilt X-ca-ca-X
  1121     1122     1123     1124         9       180.000      15.16700    2     ; C-C-C-C, prebuilt X-ca-ca-X
  1121     1122     1123     1175         9       180.000      15.16700    2     ; C-C-C-H, prebuilt X-ca-ca-X
  1122     1121     1120     1125         9       180.000      15.16700    2     ; C-C-C-C, prebuilt X-ca-ca-X
  1122     1123     1124     1125         9       180.000      15.16700    2     ; C-C-C-C, prebuilt X-ca-ca-X
  1122     1123     1124     1176         9       180.000      15.16700    2     ; C-C-C-H, prebuilt X-ca-ca-X
  1123     1122     1121     1173         9       180.000      15.16700    2     ; C-C-C-H, prebuilt X-ca-ca-X
  1123     1124     1125     1126         9       180.000      15.16700    2     ; C-C-C-O, prebuilt X-ca-ca-X
  1124     1123     1122     1174         9       180.000      15.16700    2     ; C-C-C-H, prebuilt X-ca-ca-X
  1124     1125     1126     1127         9       180.000       3.76560    2     ; C-C-O-C, prebuilt X-ca-os-X
  1125     1120     1121     1173         9       180.000      15.16700    2     ; C-C-C-H, prebuilt X-ca-ca-X
  1125     1124     1123     1175         9       180.000      15.16700    2     ; C-C-C-H, prebuilt X-ca-ca-X
  1125     1126     1127     1128         9       180.000       3.76560    2     ; C-O-C-C, prebuilt X-ca-os-X
  1125     1126     1127     1132         9       180.000       3.76560    2     ; C-O-C-C, prebuilt X-ca-os-X
  1126     1125     1124     1176         9       180.000      15.16700    2     ; O-C-C-H, prebuilt X-ca-ca-X
  1126     1127     1128     1129         9       180.000      15.16700    2     ; O-C-C-C, prebuilt X-ca-ca-X
  1126     1127     1128     1177         9       180.000      15.16700    2     ; O-C-C-H, prebuilt X-ca-ca-X
  1126     1127     1132     1131         9       180.000      15.16700    2     ; O-C-C-C, prebuilt X-ca-ca-X
  1126     1127     1132     1180         9       180.000      15.16700    2     ; O-C-C-H, prebuilt X-ca-ca-X
  1127     1128     1129     1130         9       180.000      15.16700    2     ; C-C-C-C, prebuilt X-ca-ca-X
  1127     1128     1129     1178         9       180.000      15.16700    2     ; C-C-C-H, prebuilt X-ca-ca-X
  1127     1132     1131     1130         9       180.000      15.16700    2     ; C-C-C-C, prebuilt X-ca-ca-X
  1127     1132     1131     1179         9       180.000      15.16700    2     ; C-C-C-H, prebuilt X-ca-ca-X
  1128     1127     1132     1131         9       180.000      15.16700    2     ; C-C-C-C, prebuilt X-ca-ca-X
  1128     1127     1132     1180         9       180.000      15.16700    2     ; C-C-C-H, prebuilt X-ca-ca-X
  1128     1129     1130     1131         9       180.000      15.16700    2     ; C-C-C-C, prebuilt X-ca-ca-X
  1128     1129     1130     1133         9       180.000      15.16700    2     ; C-C-C-N, prebuilt X-ca-ca-X
  1129     1128     1127     1132         9       180.000      15.16700    2     ; C-C-C-C, prebuilt X-ca-ca-X
  1129     1130     1131     1132         9       180.000      15.16700    2     ; C-C-C-C, prebuilt X-ca-ca-X
  1129     1130     1131     1179         9       180.000      15.16700    2     ; C-C-C-H, prebuilt X-ca-ca-X
  1129     1130     1133     1134         9       180.000       1.88280    2     ; C-C-N-C, prebuilt X-ca-n-X
  1129     1130     1133     1181         9       180.000       1.88280    2     ; C-C-N-H, prebuilt X-ca-n-X
  1130     1129     1128     1177         9       180.000      15.16700    2     ; C-C-C-H, prebuilt X-ca-ca-X
  1130     1131     1132     1180         9       180.000      15.16700    2     ; C-C-C-H, prebuilt X-ca-ca-X
  1130     1133     1134     1135         9       180.000      10.46000    2     ; C-N-C-O, prebuilt X-c-n-X
  1130     1133     1134     1136         9       180.000      10.46000    2     ; C-N-C-C, prebuilt X-c-n-X
  1131     1130     1129     1178         9       180.000      15.16700    2     ; C-C-C-H, prebuilt X-ca-ca-X
  1131     1130     1133     1134         9       180.000       1.88280    2     ; C-C-N-C, prebuilt X-ca-n-X
  1131     1130     1133     1181         9       180.000       1.88280    2     ; C-C-N-H, prebuilt X-ca-n-X
  1132     1127     1128     1177         9       180.000      15.16700    2     ; C-C-C-H, prebuilt X-ca-ca-X
  1132     1131     1130     1133         9       180.000      15.16700    2     ; C-C-C-N, prebuilt X-ca-ca-X
  1133     1130     1129     1178         9       180.000      15.16700    2     ; N-C-C-H, prebuilt X-ca-ca-X
  1133     1130     1131     1179         9       180.000      15.16700    2     ; N-C-C-H, prebuilt X-ca-ca-X
  1133     1134     1136     1137         9       180.000       4.18400    2     ; N-C-C-C, prebuilt X-c-ca-X
  1133     1134     1136     1141         9       180.000       4.18400    2     ; N-C-C-C, prebuilt X-c-ca-X
  1134     1136     1137     1138         9       180.000      15.16700    2     ; C-C-C-C, prebuilt X-ca-ca-X
  1134     1136     1137     1182         9       180.000      15.16700    2     ; C-C-C-H, prebuilt X-ca-ca-X
  1134     1136     1141     1140         9       180.000      15.16700    2     ; C-C-C-C, prebuilt X-ca-ca-X
  1134     1136     1141     1185         9       180.000      15.16700    2     ; C-C-C-H, prebuilt X-ca-ca-X
  1135     1134     1133     1181         9       180.000      10.46000    2     ; O-C-N-H, prebuilt hn-n-c-o
  1135     1134     1133     1181         9         0.000       8.36800    1     ; O-C-N-H, prebuilt hn-n-c-o
  1135     1134     1136     1137         9       180.000       4.18400    2     ; O-C-C-C, prebuilt X-c-ca-X
  1135     1134     1136     1141         9       180.000       4.18400    2     ; O-C-C-C, prebuilt X-c-ca-X
  1136     1134     1133     1181         9       180.000      10.46000    2     ; C-C-N-H, prebuilt X-c-n-X
  1136     1137     1138     1139         9       180.000      15.16700    2     ; C-C-C-C, prebuilt X-ca-ca-X
  1136     1137     1138     1183         9       180.000      15.16700    2     ; C-C-C-H, prebuilt X-ca-ca-X
  1136     1141     1140     1139         9       180.000      15.16700    2     ; C-C-C-C, prebuilt X-ca-ca-X
  1136     1141     1140     1184         9       180.000      15.16700    2     ; C-C-C-H, prebuilt X-ca-ca-X
  1137     1136     1141     1140         9       180.000      15.16700    2     ; C-C-C-C, prebuilt X-ca-ca-X
  1137     1136     1141     1185         9       180.000      15.16700    2     ; C-C-C-H, prebuilt X-ca-ca-X
  1137     1138     1139     1140         9       180.000      15.16700    2     ; C-C-C-C, prebuilt X-ca-ca-X
  1137     1138     1139     1142         9       180.000      15.16700    2     ; C-C-C-N, prebuilt X-ca-ca-X
  1138     1137     1136     1141         9       180.000      15.16700    2     ; C-C-C-C, prebuilt X-ca-ca-X
  1138     1139     1140     1141         9       180.000      15.16700    2     ; C-C-C-C, prebuilt X-ca-ca-X
  1138     1139     1140     1184         9       180.000      15.16700    2     ; C-C-C-H, prebuilt X-ca-ca-X
  1138     1139     1142     1143         9       180.000       1.88280    2     ; C-C-N-C, prebuilt X-ca-n-X
  1138     1139     1142     1147         9       180.000       1.88280    2     ; C-C-N-C, prebuilt X-ca-n-X
  1139     1138     1137     1182         9       180.000      15.16700    2     ; C-C-C-H, prebuilt X-ca-ca-X
  1139     1140     1141     1185         9       180.000      15.16700    2     ; C-C-C-H, prebuilt X-ca-ca-X
  1139     1142     1143     1144         9       180.000      10.46000    2     ; C-N-C-O, prebuilt X-c-n-X
  1139     1142     1143     1145         9       180.000      10.46000    2     ; C-N-C-C, prebuilt X-c-n-X
  1139     1142     1147     1146         9       180.000      10.46000    2     ; C-N-C-C, prebuilt X-c-n-X
  1139     1142     1147     1148         9       180.000      10.46000    2     ; C-N-C-O, prebuilt X-c-n-X
  1140     1139     1138     1183         9       180.000      15.16700    2     ; C-C-C-H, prebuilt X-ca-ca-X
  1140     1139     1142     1143         9       180.000       1.88280    2     ; C-C-N-C, prebuilt X-ca-n-X
  1140     1139     1142     1147         9       180.000       1.88280    2     ; C-C-N-C, prebuilt X-ca-n-X
  1141     1136     1137     1182         9       180.000      15.16700    2     ; C-C-C-H, prebuilt X-ca-ca-X
  1141     1140     1139     1142         9       180.000      15.16700    2     ; C-C-C-N, prebuilt X-ca-ca-X
  1142     1139     1138     1183         9       180.000      15.16700    2     ; N-C-C-H, prebuilt X-ca-ca-X
  1142     1139     1140     1184         9       180.000      15.16700    2     ; N-C-C-H, prebuilt X-ca-ca-X
  1142     1143     1145     1146         9       180.000       4.18400    2     ; N-C-C-C, prebuilt X-c-ca-X
  1142     1143     1145     1152         9       180.000       4.18400    2     ; N-C-C-C, prebuilt X-c-ca-X
  1142     1147     1146     1145         9       180.000       4.18400    2     ; N-C-C-C, prebuilt X-c-ca-X
  1142     1147     1146     1149         9       180.000       4.18400    2     ; N-C-C-C, prebuilt X-c-ca-X
  1143     1142     1147     1146         9       180.000      10.46000    2     ; C-N-C-C, prebuilt X-c-n-X
  1143     1142     1147     1148         9       180.000      10.46000    2     ; C-N-C-O, prebuilt X-c-n-X
  1143     1145     1146     1147         9       180.000      15.16700    2     ; C-C-C-C, prebuilt X-ca-ca-X
  1143     1145     1146     1149         9       180.000      15.16700    2     ; C-C-C-C, prebuilt X-ca-ca-X
  1143     1145     1152     1151         9       180.000      15.16700    2     ; C-C-C-C, prebuilt X-ca-ca-X
  1143     1145     1152     1188         9       180.000      15.16700    2     ; C-C-C-H, prebuilt X-ca-ca-X
  1144     1143     1142     1147         9       180.000      10.46000    2     ; O-C-N-C, prebuilt X-c-n-X
  1144     1143     1145     1146         9       180.000       4.18400    2     ; O-C-C-C, prebuilt X-c-ca-X
  1144     1143     1145     1152         9       180.000       4.18400    2     ; O-C-C-C, prebuilt X-c-ca-X
  1145     1143     1142     1147         9       180.000      10.46000    2     ; C-C-N-C, prebuilt X-c-n-X
  1145     1146     1147     1148         9       180.000       4.18400    2     ; C-C-C-O, prebuilt X-c-ca-X
  1145     1146     1149     1150         9       180.000      15.16700    2     ; C-C-C-C, prebuilt X-ca-ca-X
  1145     1146     1149     1186         9       180.000      15.16700    2     ; C-C-C-H, prebuilt X-ca-ca-X
  1145     1152     1151     1150         9       180.000      15.16700    2     ; C-C-C-C, prebuilt X-ca-ca-X
  1145     1152     1151     1187         9       180.000      15.16700    2     ; C-C-C-H, prebuilt X-ca-ca-X
  1146     1145     1152     1151         9       180.000      15.16700    2     ; C-C-C-C, prebuilt X-ca-ca-X
  1146     1145     1152     1188         9       180.000      15.16700    2     ; C-C-C-H, prebuilt X-ca-ca-X
  1146     1149     1150     1151         9       180.000      15.16700    2     ; C-C-C-C, prebuilt X-ca-cp-X
  1146     1149     1150     1192         9       180.000      15.16700    2     ; C-C-C-C, prebuilt X-ca-cp-X
  1147     1146     1145     1152         9       180.000      15.16700    2     ; C-C-C-C, prebuilt X-ca-ca-X
  1147     1146     1149     1150         9       180.000      15.16700    2     ; C-C-C-C, prebuilt X-ca-ca-X
  1147     1146     1149     1186         9       180.000      15.16700    2     ; C-C-C-H, prebuilt X-ca-ca-X
  1148     1147     1146     1149         9       180.000       4.18400    2     ; O-C-C-C, prebuilt X-c-ca-X
  1149     1146     1145     1152         9       180.000      15.16700    2     ; C-C-C-C, prebuilt X-ca-ca-X
  1149     1150     1151     1152         9       180.000      15.16700    2     ; C-C-C-C, prebuilt X-ca-cp-X
  1149     1150     1151     1187         9       180.000      15.16700    2     ; C-C-C-H, prebuilt X-ca-cp-X
  1149     1150     1192     1193         9       180.000       4.18400    2     ; C-C-C-C, prebuilt X-cp-cp-X
  1149     1150     1192     1197         9       180.000       4.18400    2     ; C-C-C-C, prebuilt X-cp-cp-X
  1150     1151     1152     1188         9       180.000      15.16700    2     ; C-C-C-H, prebuilt X-ca-ca-X
  1150     1192     1193     1194         9       180.000      15.16700    2     ; C-C-C-C, prebuilt X-ca-cp-X
  1150     1192     1193     1273         9       180.000      15.16700    2     ; C-C-C-H, prebuilt X-ca-cp-X
  1150     1192     1197     1196         9       180.000      15.16700    2     ; C-C-C-C, prebuilt X-ca-cp-X
  1150     1192     1197     1275         9       180.000      15.16700    2     ; C-C-C-H, prebuilt X-ca-cp-X
  1151     1150     1149     1186         9       180.000      15.16700    2     ; C-C-C-H, prebuilt X-ca-cp-X
  1151     1150     1192     1193         9       180.000       4.18400    2     ; C-C-C-C, prebuilt X-cp-cp-X
  1151     1150     1192     1197         9       180.000       4.18400    2     ; C-C-C-C, prebuilt X-cp-cp-X
  1152     1151     1150     1192         9       180.000      15.16700    2     ; C-C-C-C, prebuilt X-ca-cp-X
  1153     1096     1095     1163         9       180.000      15.16700    2     ; C-C-C-H, prebuilt X-ca-ca-X
  1153     1096     1097     1164         9       180.000      15.16700    2     ; C-C-C-H, prebuilt X-ca-ca-X
  1154     1074     1075     1155         9       180.000      15.16700    2     ; H-C-C-H, prebuilt X-ca-ca-X
  1157     1085     1086     1158         9       180.000      15.16700    2     ; H-C-C-H, prebuilt X-ca-ca-X
  1159     1088     1089     1160         9       180.000      15.16700    2     ; H-C-C-H, prebuilt X-ca-ca-X
  1162     1094     1095     1163         9       180.000      15.16700    2     ; H-C-C-H, prebuilt X-ca-ca-X
  1166     1108     1109     1167         9       180.000      15.16700    2     ; H-C-C-H, prebuilt X-ca-ca-X
  1169     1114     1115     1170         9       180.000      15.16700    2     ; H-C-C-H, prebuilt X-ca-ca-X
  1171     1117     1118     1172         9       180.000      15.16700    2     ; H-C-C-H, prebuilt X-ca-ca-X
  1173     1121     1122     1174         9       180.000      15.16700    2     ; H-C-C-H, prebuilt X-ca-ca-X
  1174     1122     1123     1175         9       180.000      15.16700    2     ; H-C-C-H, prebuilt X-ca-ca-X
  1175     1123     1124     1176         9       180.000      15.16700    2     ; H-C-C-H, prebuilt X-ca-ca-X
  1177     1128     1129     1178         9       180.000      15.16700    2     ; H-C-C-H, prebuilt X-ca-ca-X
  1179     1131     1132     1180         9       180.000      15.16700    2     ; H-C-C-H, prebuilt X-ca-ca-X
  1182     1137     1138     1183         9       180.000      15.16700    2     ; H-C-C-H, prebuilt X-ca-ca-X
  1184     1140     1141     1185         9       180.000      15.16700    2     ; H-C-C-H, prebuilt X-ca-ca-X
  1186     1149     1150     1192         9       180.000      15.16700    2     ; H-C-C-C, prebuilt X-ca-cp-X
  1187     1151     1150     1192         9       180.000      15.16700    2     ; H-C-C-C, prebuilt X-ca-cp-X
  1187     1151     1152     1188         9       180.000      15.16700    2     ; H-C-C-H, prebuilt X-ca-ca-X
  1192     1193     1194     1195         9       180.000      15.16700    2     ; C-C-C-C, prebuilt X-ca-ca-X
  1192     1193     1194     1274         9       180.000      15.16700    2     ; C-C-C-H, prebuilt X-ca-ca-X
  1192     1197     1196     1195         9       180.000      15.16700    2     ; C-C-C-C, prebuilt X-ca-ca-X
  1192     1197     1196     1198         9       180.000      15.16700    2     ; C-C-C-C, prebuilt X-ca-ca-X
  1193     1192     1197     1196         9       180.000      15.16700    2     ; C-C-C-C, prebuilt X-ca-cp-X
  1193     1192     1197     1275         9       180.000      15.16700    2     ; C-C-C-H, prebuilt X-ca-cp-X
  1193     1194     1195     1196         9       180.000      15.16700    2     ; C-C-C-C, prebuilt X-ca-ca-X
  1193     1194     1195     1201         9       180.000      15.16700    2     ; C-C-C-C, prebuilt X-ca-ca-X
  1194     1193     1192     1197         9       180.000      15.16700    2     ; C-C-C-C, prebuilt X-ca-cp-X
  1194     1195     1196     1197         9       180.000      15.16700    2     ; C-C-C-C, prebuilt X-ca-ca-X
  1194     1195     1196     1198         9       180.000      15.16700    2     ; C-C-C-C, prebuilt X-ca-ca-X
  1194     1195     1201     1200         9       180.000       4.18400    2     ; C-C-C-N, prebuilt X-c-ca-X
  1194     1195     1201     1202         9       180.000       4.18400    2     ; C-C-C-O, prebuilt X-c-ca-X
  1195     1194     1193     1273         9       180.000      15.16700    2     ; C-C-C-H, prebuilt X-ca-ca-X
  1195     1196     1197     1275         9       180.000      15.16700    2     ; C-C-C-H, prebuilt X-ca-ca-X
  1195     1196     1198     1199         9       180.000       4.18400    2     ; C-C-C-O, prebuilt X-c-ca-X
  1195     1196     1198     1200         9       180.000       4.18400    2     ; C-C-C-N, prebuilt X-c-ca-X
  1195     1201     1200     1198         9       180.000      10.46000    2     ; C-C-N-C, prebuilt X-c-n-X
  1195     1201     1200     1203         9       180.000      10.46000    2     ; C-C-N-C, prebuilt X-c-n-X
  1196     1195     1194     1274         9       180.000      15.16700    2     ; C-C-C-H, prebuilt X-ca-ca-X
  1196     1195     1201     1200         9       180.000       4.18400    2     ; C-C-C-N, prebuilt X-c-ca-X
  1196     1195     1201     1202         9       180.000       4.18400    2     ; C-C-C-O, prebuilt X-c-ca-X
  1196     1198     1200     1201         9       180.000      10.46000    2     ; C-C-N-C, prebuilt X-c-n-X
  1196     1198     1200     1203         9       180.000      10.46000    2     ; C-C-N-C, prebuilt X-c-n-X
  1197     1192     1193     1273         9       180.000      15.16700    2     ; C-C-C-H, prebuilt X-ca-cp-X
  1197     1196     1195     1201         9       180.000      15.16700    2     ; C-C-C-C, prebuilt X-ca-ca-X
  1197     1196     1198     1199         9       180.000       4.18400    2     ; C-C-C-O, prebuilt X-c-ca-X
  1197     1196     1198     1200         9       180.000       4.18400    2     ; C-C-C-N, prebuilt X-c-ca-X
  1198     1196     1195     1201         9       180.000      15.16700    2     ; C-C-C-C, prebuilt X-ca-ca-X
  1198     1196     1197     1275         9       180.000      15.16700    2     ; C-C-C-H, prebuilt X-ca-ca-X
  1198     1200     1201     1202         9       180.000      10.46000    2     ; C-N-C-O, prebuilt X-c-n-X
  1198     1200     1203     1204         9       180.000       1.88280    2     ; C-N-C-C, prebuilt X-ca-n-X
  1198     1200     1203     1208         9       180.000       1.88280    2     ; C-N-C-C, prebuilt X-ca-n-X
  1199     1198     1200     1201         9       180.000      10.46000    2     ; O-C-N-C, prebuilt X-c-n-X
  1199     1198     1200     1203         9       180.000      10.46000    2     ; O-C-N-C, prebuilt X-c-n-X
  1200     1203     1204     1205         9       180.000      15.16700    2     ; N-C-C-C, prebuilt X-ca-ca-X
  1200     1203     1204     1276         9       180.000      15.16700    2     ; N-C-C-H, prebuilt X-ca-ca-X
  1200     1203     1208     1207         9       180.000      15.16700    2     ; N-C-C-C, prebuilt X-ca-ca-X
  1200     1203     1208     1279         9       180.000      15.16700    2     ; N-C-C-H, prebuilt X-ca-ca-X
  1201     1195     1194     1274         9       180.000      15.16700    2     ; C-C-C-H, prebuilt X-ca-ca-X
  1201     1200     1203     1204         9       180.000       1.88280    2     ; C-N-C-C, prebuilt X-ca-n-X
  1201     1200     1203     1208         9       180.000       1.88280    2     ; C-N-C-C, prebuilt X-ca-n-X
  1202     1201     1200     1203         9       180.000      10.46000    2     ; O-C-N-C, prebuilt X-c-n-X
  1203     1204     1205     1206         9       180.000      15.16700    2     ; C-C-C-C, prebuilt X-ca-ca-X
  1203     1204     1205     1277         9       180.000      15.16700    2     ; C-C-C-H, prebuilt X-ca-ca-X
  1203     1208     1207     1206         9       180.000      15.16700    2     ; C-C-C-C, prebuilt X-ca-ca-X
  1203     1208     1207     1278         9       180.000      15.16700    2     ; C-C-C-H, prebuilt X-ca-ca-X
  1204     1203     1208     1207         9       180.000      15.16700    2     ; C-C-C-C, prebuilt X-ca-ca-X
  1204     1203     1208     1279         9       180.000      15.16700    2     ; C-C-C-H, prebuilt X-ca-ca-X
  1204     1205     1206     1207         9       180.000      15.16700    2     ; C-C-C-C, prebuilt X-ca-ca-X
  1204     1205     1206     1209         9       180.000      15.16700    2     ; C-C-C-N, prebuilt X-ca-ca-X
  1205     1204     1203     1208         9       180.000      15.16700    2     ; C-C-C-C, prebuilt X-ca-ca-X
  1205     1206     1207     1208         9       180.000      15.16700    2     ; C-C-C-C, prebuilt X-ca-ca-X
  1205     1206     1207     1278         9       180.000      15.16700    2     ; C-C-C-H, prebuilt X-ca-ca-X
  1205     1206     1209     1210         9       180.000       1.88280    2     ; C-C-N-C, prebuilt X-ca-n-X
  1205     1206     1209     1280         9       180.000       1.88280    2     ; C-C-N-H, prebuilt X-ca-n-X
  1206     1205     1204     1276         9       180.000      15.16700    2     ; C-C-C-H, prebuilt X-ca-ca-X
  1206     1207     1208     1279         9       180.000      15.16700    2     ; C-C-C-H, prebuilt X-ca-ca-X
  1206     1209     1210     1211         9       180.000      10.46000    2     ; C-N-C-O, prebuilt X-c-n-X
  1206     1209     1210     1212         9       180.000      10.46000    2     ; C-N-C-C, prebuilt X-c-n-X
  1207     1206     1205     1277         9       180.000      15.16700    2     ; C-C-C-H, prebuilt X-ca-ca-X
  1207     1206     1209     1210         9       180.000       1.88280    2     ; C-C-N-C, prebuilt X-ca-n-X
  1207     1206     1209     1280         9       180.000       1.88280    2     ; C-C-N-H, prebuilt X-ca-n-X
  1208     1203     1204     1276         9       180.000      15.16700    2     ; C-C-C-H, prebuilt X-ca-ca-X
  1208     1207     1206     1209         9       180.000      15.16700    2     ; C-C-C-N, prebuilt X-ca-ca-X
  1209     1206     1205     1277         9       180.000      15.16700    2     ; N-C-C-H, prebuilt X-ca-ca-X
  1209     1206     1207     1278         9       180.000      15.16700    2     ; N-C-C-H, prebuilt X-ca-ca-X
  1209     1210     1212     1213         9       180.000       4.18400    2     ; N-C-C-C, prebuilt X-c-ca-X
  1209     1210     1212     1217         9       180.000       4.18400    2     ; N-C-C-C, prebuilt X-c-ca-X
  1210     1212     1213     1214         9       180.000      15.16700    2     ; C-C-C-C, prebuilt X-ca-ca-X
  1210     1212     1213     1281         9       180.000      15.16700    2     ; C-C-C-H, prebuilt X-ca-ca-X
  1210     1212     1217     1216         9       180.000      15.16700    2     ; C-C-C-C, prebuilt X-ca-ca-X
  1210     1212     1217     1218         9       180.000      15.16700    2     ; C-C-C-N, prebuilt X-ca-ca-X
  1211     1210     1209     1280         9       180.000      10.46000    2     ; O-C-N-H, prebuilt hn-n-c-o
  1211     1210     1209     1280         9         0.000       8.36800    1     ; O-C-N-H, prebuilt hn-n-c-o
  1211     1210     1212     1213         9       180.000       4.18400    2     ; O-C-C-C, prebuilt X-c-ca-X
  1211     1210     1212     1217         9       180.000       4.18400    2     ; O-C-C-C, prebuilt X-c-ca-X
  1212     1210     1209     1280         9       180.000      10.46000    2     ; C-C-N-H, prebuilt X-c-n-X
  1212     1213     1214     1215         9       180.000      15.16700    2     ; C-C-C-C, prebuilt X-ca-ca-X
  1212     1213     1214     1282         9       180.000      15.16700    2     ; C-C-C-H, prebuilt X-ca-ca-X
  1212     1217     1216     1215         9       180.000      15.16700    2     ; C-C-C-C, prebuilt X-ca-ca-X
  1212     1217     1216     1283         9       180.000      15.16700    2     ; C-C-C-H, prebuilt X-ca-ca-X
  1212     1217     1218     1219         9       180.000       1.88280    2     ; C-C-N-C, prebuilt X-ca-n-X
  1212     1217     1218     1223         9       180.000       1.88280    2     ; C-C-N-C, prebuilt X-ca-n-X
  1213     1212     1217     1216         9       180.000      15.16700    2     ; C-C-C-C, prebuilt X-ca-ca-X
  1213     1212     1217     1218         9       180.000      15.16700    2     ; C-C-C-N, prebuilt X-ca-ca-X
  1213     1214     1215     1216         9       180.000      15.16700    2     ; C-C-C-C, prebuilt X-ca-ca-X
  1213     1214     1215     1272         9       180.000      15.16700    2     ; C-C-C-C, prebuilt X-ca-ca-X
  1214     1213     1212     1217         9       180.000      15.16700    2     ; C-C-C-C, prebuilt X-ca-ca-X
  1214     1215     1216     1217         9       180.000      15.16700    2     ; C-C-C-C, prebuilt X-ca-ca-X
  1214     1215     1216     1283         9       180.000      15.16700    2     ; C-C-C-H, prebuilt X-ca-ca-X
  1214     1215     1272     1308         9         0.000       0.00000    2     ; C-C-C-H, prebuilt X-c3-ca-X
  1214     1215     1272     1309         9         0.000       0.00000    2     ; C-C-C-H, prebuilt X-c3-ca-X
  1214     1215     1272     1310         9         0.000       0.00000    2     ; C-C-C-H, prebuilt X-c3-ca-X
  1215     1214     1213     1281         9       180.000      15.16700    2     ; C-C-C-H, prebuilt X-ca-ca-X
  1215     1216     1217     1218         9       180.000      15.16700    2     ; C-C-C-N, prebuilt X-ca-ca-X
  1216     1215     1214     1282         9       180.000      15.16700    2     ; C-C-C-H, prebuilt X-ca-ca-X
  1216     1215     1272     1308         9         0.000       0.00000    2     ; C-C-C-H, prebuilt X-c3-ca-X
  1216     1215     1272     1309         9         0.000       0.00000    2     ; C-C-C-H, prebuilt X-c3-ca-X
  1216     1215     1272     1310         9         0.000       0.00000    2     ; C-C-C-H, prebuilt X-c3-ca-X
  1216     1217     1218     1219         9       180.000       1.88280    2     ; C-C-N-C, prebuilt X-ca-n-X
  1216     1217     1218     1223         9       180.000       1.88280    2     ; C-C-N-C, prebuilt X-ca-n-X
  1217     1212     1213     1281         9       180.000      15.16700    2     ; C-C-C-H, prebuilt X-ca-ca-X
  1217     1216     1215     1272         9       180.000      15.16700    2     ; C-C-C-C, prebuilt X-ca-ca-X
  1217     1218     1219     1220         9       180.000      10.46000    2     ; C-N-C-O, prebuilt X-c-n-X
  1217     1218     1219     1221         9       180.000      10.46000    2     ; C-N-C-C, prebuilt X-c-n-X
  1217     1218     1223     1222         9       180.000      10.46000    2     ; C-N-C-C, prebuilt X-c-n-X
  1217     1218     1223     1224         9       180.000      10.46000    2     ; C-N-C-O, prebuilt X-c-n-X
  1218     1217     1216     1283         9       180.000      15.16700    2     ; N-C-C-H, prebuilt X-ca-ca-X
  1218     1219     1221     1222         9       180.000       4.18400    2     ; N-C-C-C, prebuilt X-c-ca-X
  1218     1219     1221     1228         9       180.000       4.18400    2     ; N-C-C-C, prebuilt X-c-ca-X
  1218     1223     1222     1221         9       180.000       4.18400    2     ; N-C-C-C, prebuilt X-c-ca-X
  1218     1223     1222     1225         9       180.000       4.18400    2     ; N-C-C-C, prebuilt X-c-ca-X
  1219     1218     1223     1222         9       180.000      10.46000    2     ; C-N-C-C, prebuilt X-c-n-X
  1219     1218     1223     1224         9       180.000      10.46000    2     ; C-N-C-O, prebuilt X-c-n-X
  1219     1221     1222     1223         9       180.000      15.16700    2     ; C-C-C-C, prebuilt X-ca-ca-X
  1219     1221     1222     1225         9       180.000      15.16700    2     ; C-C-C-C, prebuilt X-ca-ca-X
  1219     1221     1228     1227         9       180.000      15.16700    2     ; C-C-C-C, prebuilt X-ca-ca-X
  1219     1221     1228     1286         9       180.000      15.16700    2     ; C-C-C-H, prebuilt X-ca-ca-X
  1220     1219     1218     1223         9       180.000      10.46000    2     ; O-C-N-C, prebuilt X-c-n-X
  1220     1219     1221     1222         9       180.000       4.18400    2     ; O-C-C-C, prebuilt X-c-ca-X
  1220     1219     1221     1228         9       180.000       4.18400    2     ; O-C-C-C, prebuilt X-c-ca-X
  1221     1219     1218     1223         9       180.000      10.46000    2     ; C-C-N-C, prebuilt X-c-n-X
  1221     1222     1223     1224         9       180.000       4.18400    2     ; C-C-C-O, prebuilt X-c-ca-X
  1221     1222     1225     1226         9       180.000      15.16700    2     ; C-C-C-C, prebuilt X-ca-ca-X
  1221     1222     1225     1284         9       180.000      15.16700    2     ; C-C-C-H, prebuilt X-ca-ca-X
  1221     1228     1227     1226         9       180.000      15.16700    2     ; C-C-C-C, prebuilt X-ca-ca-X
  1221     1228     1227     1285         9       180.000      15.16700    2     ; C-C-C-H, prebuilt X-ca-ca-X
  1222     1221     1228     1227         9       180.000      15.16700    2     ; C-C-C-C, prebuilt X-ca-ca-X
  1222     1221     1228     1286         9       180.000      15.16700    2     ; C-C-C-H, prebuilt X-ca-ca-X
  1222     1225     1226     1227         9       180.000      15.16700    2     ; C-C-C-C, prebuilt X-ca-ca-X
  1222     1225     1226     1229         9       180.000      15.16700    2     ; C-C-C-C, prebuilt X-ca-ca-X
  1223     1222     1221     1228         9       180.000      15.16700    2     ; C-C-C-C, prebuilt X-ca-ca-X
  1223     1222     1225     1226         9       180.000      15.16700    2     ; C-C-C-C, prebuilt X-ca-ca-X
  1223     1222     1225     1284         9       180.000      15.16700    2     ; C-C-C-H, prebuilt X-ca-ca-X
  1224     1223     1222     1225         9       180.000       4.18400    2     ; O-C-C-C, prebuilt X-c-ca-X
  1225     1222     1221     1228         9       180.000      15.16700    2     ; C-C-C-C, prebuilt X-ca-ca-X
  1225     1226     1227     1228         9       180.000      15.16700    2     ; C-C-C-C, prebuilt X-ca-ca-X
  1225     1226     1227     1285         9       180.000      15.16700    2     ; C-C-C-H, prebuilt X-ca-ca-X
  1225     1226     1229     1230         9       180.000       4.18400    2     ; C-C-C-O, prebuilt X-c-ca-X
  1225     1226     1229     1231         9       180.000       4.18400    2     ; C-C-C-N, prebuilt X-c-ca-X
  1226     1227     1228     1286         9       180.000      15.16700    2     ; C-C-C-H, prebuilt X-ca-ca-X
  1226     1229     1231     1232         9       180.000      10.46000    2     ; C-C-N-C, prebuilt X-c-n-X
  1226     1229     1231     1287         9       180.000      10.46000    2     ; C-C-N-H, prebuilt X-c-n-X
  1227     1226     1225     1284         9       180.000      15.16700    2     ; C-C-C-H, prebuilt X-ca-ca-X
  1227     1226     1229     1230         9       180.000       4.18400    2     ; C-C-C-O, prebuilt X-c-ca-X
  1227     1226     1229     1231         9       180.000       4.18400    2     ; C-C-C-N, prebuilt X-c-ca-X
  1228     1227     1226     1229         9       180.000      15.16700    2     ; C-C-C-C, prebuilt X-ca-ca-X
  1229     1226     1225     1284         9       180.000      15.16700    2     ; C-C-C-H, prebuilt X-ca-ca-X
  1229     1226     1227     1285         9       180.000      15.16700    2     ; C-C-C-H, prebuilt X-ca-ca-X
  1229     1231     1232     1233         9       180.000       1.88280    2     ; C-N-C-C, prebuilt X-ca-n-X
  1229     1231     1232     1237         9       180.000       1.88280    2     ; C-N-C-C, prebuilt X-ca-n-X
  1230     1229     1231     1232         9       180.000      10.46000    2     ; O-C-N-C, prebuilt X-c-n-X
  1230     1229     1231     1287         9       180.000      10.46000    2     ; O-C-N-H, prebuilt hn-n-c-o
  1230     1229     1231     1287         9         0.000       8.36800    1     ; O-C-N-H, prebuilt hn-n-c-o
  1231     1232     1233     1234         9       180.000      15.16700    2     ; N-C-C-C, prebuilt X-ca-ca-X
  1231     1232     1233     1288         9       180.000      15.16700    2     ; N-C-C-H, prebuilt X-ca-ca-X
  1231     1232     1237     1236         9       180.000      15.16700    2     ; N-C-C-C, prebuilt X-ca-ca-X
  1231     1232     1237     1291         9       180.000      15.16700    2     ; N-C-C-H, prebuilt X-ca-ca-X
  1232     1233     1234     1235         9       180.000      15.16700    2     ; C-C-C-C, prebuilt X-ca-ca-X
  1232     1233     1234     1289         9       180.000      15.16700    2     ; C-C-C-H, prebuilt X-ca-ca-X
  1232     1237     1236     1235         9       180.000      15.16700    2     ; C-C-C-C, prebuilt X-ca-ca-X
  1232     1237     1236     1290         9       180.000      15.16700    2     ; C-C-C-H, prebuilt X-ca-ca-X
  1233     1232     1231     1287         9       180.000       1.88280    2     ; C-C-N-H, prebuilt X-ca-n-X
  1233     1232     1237     1236         9       180.000      15.16700    2     ; C-C-C-C, prebuilt X-ca-ca-X
  1233     1232     1237     1291         9       180.000      15.16700    2     ; C-C-C-H, prebuilt X-ca-ca-X
  1233     1234     1235     1236         9       180.000      15.16700    2     ; C-C-C-C, prebuilt X-ca-ca-X
  1233     1234     1235     1238         9       180.000      15.16700    2     ; C-C-C-O, prebuilt X-ca-ca-X
  1234     1233     1232     1237         9       180.000      15.16700    2     ; C-C-C-C, prebuilt X-ca-ca-X
  1234     1235     1236     1237         9       180.000      15.16700    2     ; C-C-C-C, prebuilt X-ca-ca-X
  1234     1235     1236     1290         9       180.000      15.16700    2     ; C-C-C-H, prebuilt X-ca-ca-X
  1234     1235     1238     1239         9       180.000       3.76560    2     ; C-C-O-C, prebuilt X-ca-os-X
  1235     1234     1233     1288         9       180.000      15.16700    2     ; C-C-C-H, prebuilt X-ca-ca-X
  1235     1236     1237     1291         9       180.000      15.16700    2     ; C-C-C-H, prebuilt X-ca-ca-X
  1235     1238     1239     1240         9       180.000       3.76560    2     ; C-O-C-C, prebuilt X-ca-os-X
  1235     1238     1239     1244         9       180.000       3.76560    2     ; C-O-C-C, prebuilt X-ca-os-X
  1236     1235     1234     1289         9       180.000      15.16700    2     ; C-C-C-H, prebuilt X-ca-ca-X
  1236     1235     1238     1239         9       180.000       3.76560    2     ; C-C-O-C, prebuilt X-ca-os-X
  1237     1232     1231     1287         9       180.000       1.88280    2     ; C-C-N-H, prebuilt X-ca-n-X
  1237     1232     1233     1288         9       180.000      15.16700    2     ; C-C-C-H, prebuilt X-ca-ca-X
  1237     1236     1235     1238         9       180.000      15.16700    2     ; C-C-C-O, prebuilt X-ca-ca-X
  1238     1235     1234     1289         9       180.000      15.16700    2     ; O-C-C-H, prebuilt X-ca-ca-X
  1238     1235     1236     1290         9       180.000      15.16700    2     ; O-C-C-H, prebuilt X-ca-ca-X
  1238     1239     1240     1241         9       180.000      15.16700    2     ; O-C-C-C, prebuilt X-ca-ca-X
  1238     1239     1240     1292         9       180.000      15.16700    2     ; O-C-C-H, prebuilt X-ca-ca-X
  1238     1239     1244     1243         9       180.000      15.16700    2     ; O-C-C-C, prebuilt X-ca-ca-X
  1238     1239     1244     1245         9       180.000      15.16700    2     ; O-C-C-O, prebuilt X-ca-ca-X
  1239     1240     1241     1242         9       180.000      15.16700    2     ; C-C-C-C, prebuilt X-ca-ca-X
  1239     1240     1241     1293         9       180.000      15.16700    2     ; C-C-C-H, prebuilt X-ca-ca-X
  1239     1244     1243     1242         9       180.000      15.16700    2     ; C-C-C-C, prebuilt X-ca-ca-X
  1239     1244     1243     1295         9       180.000      15.16700    2     ; C-C-C-H, prebuilt X-ca-ca-X
  1239     1244     1245     1246         9       180.000       3.76560    2     ; C-C-O-C, prebuilt X-ca-os-X
  1240     1239     1244     1243         9       180.000      15.16700    2     ; C-C-C-C, prebuilt X-ca-ca-X
  1240     1239     1244     1245         9       180.000      15.16700    2     ; C-C-C-O, prebuilt X-ca-ca-X
  1240     1241     1242     1243         9       180.000      15.16700    2     ; C-C-C-C, prebuilt X-ca-ca-X
  1240     1241     1242     1294         9       180.000      15.16700    2     ; C-C-C-H, prebuilt X-ca-ca-X
  1241     1240     1239     1244         9       180.000      15.16700    2     ; C-C-C-C, prebuilt X-ca-ca-X
  1241     1242     1243     1244         9       180.000      15.16700    2     ; C-C-C-C, prebuilt X-ca-ca-X
  1241     1242     1243     1295         9       180.000      15.16700    2     ; C-C-C-H, prebuilt X-ca-ca-X
  1242     1241     1240     1292         9       180.000      15.16700    2     ; C-C-C-H, prebuilt X-ca-ca-X
  1242     1243     1244     1245         9       180.000      15.16700    2     ; C-C-C-O, prebuilt X-ca-ca-X
  1243     1242     1241     1293         9       180.000      15.16700    2     ; C-C-C-H, prebuilt X-ca-ca-X
  1243     1244     1245     1246         9       180.000       3.76560    2     ; C-C-O-C, prebuilt X-ca-os-X
  1244     1239     1240     1292         9       180.000      15.16700    2     ; C-C-C-H, prebuilt X-ca-ca-X
  1244     1243     1242     1294         9       180.000      15.16700    2     ; C-C-C-H, prebuilt X-ca-ca-X
  1244     1245     1246     1247         9       180.000       3.76560    2     ; C-O-C-C, prebuilt X-ca-os-X
  1244     1245     1246     1251         9       180.000       3.76560    2     ; C-O-C-C, prebuilt X-ca-os-X
  1245     1244     1243     1295         9       180.000      15.16700    2     ; O-C-C-H, prebuilt X-ca-ca-X
  1245     1246     1247     1248         9       180.000      15.16700    2     ; O-C-C-C, prebuilt X-ca-ca-X
  1245     1246     1247     1296         9       180.000      15.16700    2     ; O-C-C-H, prebuilt X-ca-ca-X
  1245     1246     1251     1250         9       180.000      15.16700    2     ; O-C-C-C, prebuilt X-ca-ca-X
  1245     1246     1251     1299         9       180.000      15.16700    2     ; O-C-C-H, prebuilt X-ca-ca-X
  1246     1247     1248     1249         9       180.000      15.16700    2     ; C-C-C-C, prebuilt X-ca-ca-X
  1246     1247     1248     1297         9       180.000      15.16700    2     ; C-C-C-H, prebuilt X-ca-ca-X
  1246     1251     1250     1249         9       180.000      15.16700    2     ; C-C-C-C, prebuilt X-ca-ca-X
  1246     1251     1250     1298         9       180.000      15.16700    2     ; C-C-C-H, prebuilt X-ca-ca-X
  1247     1246     1251     1250         9       180.000      15.16700    2     ; C-C-C-C, prebuilt X-ca-ca-X
  1247     1246     1251     1299         9       180.000      15.16700    2     ; C-C-C-H, prebuilt X-ca-ca-X
  1247     1248     1249     1250         9       180.000      15.16700    2     ; C-C-C-C, prebuilt X-ca-ca-X
  1247     1248     1249     1252         9       180.000      15.16700    2     ; C-C-C-N, prebuilt X-ca-ca-X
  1248     1247     1246     1251         9       180.000      15.16700    2     ; C-C-C-C, prebuilt X-ca-ca-X
  1248     1249     1250     1251         9       180.000      15.16700    2     ; C-C-C-C, prebuilt X-ca-ca-X
  1248     1249     1250     1298         9       180.000      15.16700    2     ; C-C-C-H, prebuilt X-ca-ca-X
  1248     1249     1252     1253         9       180.000       1.88280    2     ; C-C-N-C, prebuilt X-ca-n-X
  1248     1249     1252     1300         9       180.000       1.88280    2     ; C-C-N-H, prebuilt X-ca-n-X
  1249     1248     1247     1296         9       180.000      15.16700    2     ; C-C-C-H, prebuilt X-ca-ca-X
  1249     1250     1251     1299         9       180.000      15.16700    2     ; C-C-C-H, prebuilt X-ca-ca-X
  1249     1252     1253     1254         9       180.000      10.46000    2     ; C-N-C-O, prebuilt X-c-n-X
  1249     1252     1253     1255         9       180.000      10.46000    2     ; C-N-C-C, prebuilt X-c-n-X
  1250     1249     1248     1297         9       180.000      15.16700    2     ; C-C-C-H, prebuilt X-ca-ca-X
  1250     1249     1252     1253         9       180.000       1.88280    2     ; C-C-N-C, prebuilt X-ca-n-X
  1250     1249     1252     1300         9       180.000       1.88280    2     ; C-C-N-H, prebuilt X-ca-n-X
  1251     1246     1247     1296         9       180.000      15.16700    2     ; C-C-C-H, prebuilt X-ca-ca-X
  1251     1250     1249     1252         9       180.000      15.16700    2     ; C-C-C-N, prebuilt X-ca-ca-X
  1252     1249     1248     1297         9       180.000      15.16700    2     ; N-C-C-H, prebuilt X-ca-ca-X
  1252     1249     1250     1298         9       180.000      15.16700    2     ; N-C-C-H, prebuilt X-ca-ca-X
  1252     1253     1255     1256         9       180.000       4.18400    2     ; N-C-C-C, prebuilt X-c-ca-X
  1252     1253     1255     1260         9       180.000       4.18400    2     ; N-C-C-C, prebuilt X-c-ca-X
  1253     1255     1256     1257         9       180.000      15.16700    2     ; C-C-C-C, prebuilt X-ca-ca-X
  1253     1255     1256     1301         9       180.000      15.16700    2     ; C-C-C-H, prebuilt X-ca-ca-X
  1253     1255     1260     1259         9       180.000      15.16700    2     ; C-C-C-C, prebuilt X-ca-ca-X
  1253     1255     1260     1304         9       180.000      15.16700    2     ; C-C-C-H, prebuilt X-ca-ca-X
  1254     1253     1252     1300         9       180.000      10.46000    2     ; O-C-N-H, prebuilt hn-n-c-o
  1254     1253     1252     1300         9         0.000       8.36800    1     ; O-C-N-H, prebuilt hn-n-c-o
  1254     1253     1255     1256         9       180.000       4.18400    2     ; O-C-C-C, prebuilt X-c-ca-X
  1254     1253     1255     1260         9       180.000       4.18400    2     ; O-C-C-C, prebuilt X-c-ca-X
  1255     1253     1252     1300         9       180.000      10.46000    2     ; C-C-N-H, prebuilt X-c-n-X
  1255     1256     1257     1258         9       180.000      15.16700    2     ; C-C-C-C, prebuilt X-ca-ca-X
  1255     1256     1257     1302         9       180.000      15.16700    2     ; C-C-C-H, prebuilt X-ca-ca-X
  1255     1260     1259     1258         9       180.000      15.16700    2     ; C-C-C-C, prebuilt X-ca-ca-X
  1255     1260     1259     1303         9       180.000      15.16700    2     ; C-C-C-H, prebuilt X-ca-ca-X
  1256     1255     1260     1259         9       180.000      15.16700    2     ; C-C-C-C, prebuilt X-ca-ca-X
  1256     1255     1260     1304         9       180.000      15.16700    2     ; C-C-C-H, prebuilt X-ca-ca-X
  1256     1257     1258     1259         9       180.000      15.16700    2     ; C-C-C-C, prebuilt X-ca-ca-X
  1256     1257     1258     1261         9       180.000      15.16700    2     ; C-C-C-N, prebuilt X-ca-ca-X
  1257     1256     1255     1260         9       180.000      15.16700    2     ; C-C-C-C, prebuilt X-ca-ca-X
  1257     1258     1259     1260         9       180.000      15.16700    2     ; C-C-C-C, prebuilt X-ca-ca-X
  1257     1258     1259     1303         9       180.000      15.16700    2     ; C-C-C-H, prebuilt X-ca-ca-X
  1257     1258     1261     1262         9       180.000       1.88280    2     ; C-C-N-C, prebuilt X-ca-n-X
  1257     1258     1261     1266         9       180.000       1.88280    2     ; C-C-N-C, prebuilt X-ca-n-X
  1258     1257     1256     1301         9       180.000      15.16700    2     ; C-C-C-H, prebuilt X-ca-ca-X
  1258     1259     1260     1304         9       180.000      15.16700    2     ; C-C-C-H, prebuilt X-ca-ca-X
  1258     1261     1262     1263         9       180.000      10.46000    2     ; C-N-C-O, prebuilt X-c-n-X
  1258     1261     1262     1264         9       180.000      10.46000    2     ; C-N-C-C, prebuilt X-c-n-X
  1258     1261     1266     1265         9       180.000      10.46000    2     ; C-N-C-C, prebuilt X-c-n-X
  1258     1261     1266     1267         9       180.000      10.46000    2     ; C-N-C-O, prebuilt X-c-n-X
  1259     1258     1257     1302         9       180.000      15.16700    2     ; C-C-C-H, prebuilt X-ca-ca-X
  1259     1258     1261     1262         9       180.000       1.88280    2     ; C-C-N-C, prebuilt X-ca-n-X
  1259     1258     1261     1266         9       180.000       1.88280    2     ; C-C-N-C, prebuilt X-ca-n-X
  1260     1255     1256     1301         9       180.000      15.16700    2     ; C-C-C-H, prebuilt X-ca-ca-X
  1260     1259     1258     1261         9       180.000      15.16700    2     ; C-C-C-N, prebuilt X-ca-ca-X
  1261     1258     1257     1302         9       180.000      15.16700    2     ; N-C-C-H, prebuilt X-ca-ca-X
  1261     1258     1259     1303         9       180.000      15.16700    2     ; N-C-C-H, prebuilt X-ca-ca-X
  1261     1262     1264     1265         9       180.000       4.18400    2     ; N-C-C-C, prebuilt X-c-ca-X
  1261     1262     1264     1271         9       180.000       4.18400    2     ; N-C-C-C, prebuilt X-c-ca-X
  1261     1266     1265     1264         9       180.000       4.18400    2     ; N-C-C-C, prebuilt X-c-ca-X
  1261     1266     1265     1268         9       180.000       4.18400    2     ; N-C-C-C, prebuilt X-c-ca-X
  1262     1261     1266     1265         9       180.000      10.46000    2     ; C-N-C-C, prebuilt X-c-n-X
  1262     1261     1266     1267         9       180.000      10.46000    2     ; C-N-C-O, prebuilt X-c-n-X
  1262     1264     1265     1266         9       180.000      15.16700    2     ; C-C-C-C, prebuilt X-ca-ca-X
  1262     1264     1265     1268         9       180.000      15.16700    2     ; C-C-C-C, prebuilt X-ca-ca-X
  1262     1264     1271     1270         9       180.000      15.16700    2     ; C-C-C-C, prebuilt X-ca-ca-X
  1262     1264     1271     1307         9       180.000      15.16700    2     ; C-C-C-H, prebuilt X-ca-ca-X
  1263     1262     1261     1266         9       180.000      10.46000    2     ; O-C-N-C, prebuilt X-c-n-X
  1263     1262     1264     1265         9       180.000       4.18400    2     ; O-C-C-C, prebuilt X-c-ca-X
  1263     1262     1264     1271         9       180.000       4.18400    2     ; O-C-C-C, prebuilt X-c-ca-X
  1264     1262     1261     1266         9       180.000      10.46000    2     ; C-C-N-C, prebuilt X-c-n-X
  1264     1265     1266     1267         9       180.000       4.18400    2     ; C-C-C-O, prebuilt X-c-ca-X
  1264     1265     1268     1269         9       180.000      15.16700    2     ; C-C-C-C, prebuilt X-ca-ca-X
  1264     1265     1268     1305         9       180.000      15.16700    2     ; C-C-C-H, prebuilt X-ca-ca-X
  1264     1271     1270     1269         9       180.000      15.16700    2     ; C-C-C-C, prebuilt X-ca-ca-X
  1264     1271     1270     1306         9       180.000      15.16700    2     ; C-C-C-H, prebuilt X-ca-ca-X
  1265     1264     1271     1270         9       180.000      15.16700    2     ; C-C-C-C, prebuilt X-ca-ca-X
  1265     1264     1271     1307         9       180.000      15.16700    2     ; C-C-C-H, prebuilt X-ca-ca-X
  1265     1268     1269     1270         9       180.000      15.16700    2     ; C-C-C-C, prebuilt X-ca-cp-X
  1265     1268     1269     1311         9       180.000      15.16700    2     ; C-C-C-C, prebuilt X-ca-cp-X
  1266     1265     1264     1271         9       180.000      15.16700    2     ; C-C-C-C, prebuilt X-ca-ca-X
  1266     1265     1268     1269         9       180.000      15.16700    2     ; C-C-C-C, prebuilt X-ca-ca-X
  1266     1265     1268     1305         9       180.000      15.16700    2     ; C-C-C-H, prebuilt X-ca-ca-X
  1267     1266     1265     1268         9       180.000       4.18400    2     ; O-C-C-C, prebuilt X-c-ca-X
  1268     1265     1264     1271         9       180.000      15.16700    2     ; C-C-C-C, prebuilt X-ca-ca-X
  1268     1269     1270     1271         9       180.000      15.16700    2     ; C-C-C-C, prebuilt X-ca-cp-X
  1268     1269     1270     1306         9       180.000      15.16700    2     ; C-C-C-H, prebuilt X-ca-cp-X
  1268     1269     1311     1312         9       180.000       4.18400    2     ; C-C-C-C, prebuilt X-cp-cp-X
  1268     1269     1311     1316         9       180.000       4.18400    2     ; C-C-C-C, prebuilt X-cp-cp-X
  1269     1270     1271     1307         9       180.000      15.16700    2     ; C-C-C-H, prebuilt X-ca-ca-X
  1269     1311     1312     1313         9       180.000      15.16700    2     ; C-C-C-C, prebuilt X-ca-cp-X
  1269     1311     1312     1392         9       180.000      15.16700    2     ; C-C-C-H, prebuilt X-ca-cp-X
  1269     1311     1316     1315         9       180.000      15.16700    2     ; C-C-C-C, prebuilt X-ca-cp-X
  1269     1311     1316     1394         9       180.000      15.16700    2     ; C-C-C-H, prebuilt X-ca-cp-X
  1270     1269     1268     1305         9       180.000      15.16700    2     ; C-C-C-H, prebuilt X-ca-cp-X
  1270     1269     1311     1312         9       180.000       4.18400    2     ; C-C-C-C, prebuilt X-cp-cp-X
  1270     1269     1311     1316         9       180.000       4.18400    2     ; C-C-C-C, prebuilt X-cp-cp-X
  1271     1270     1269     1311         9       180.000      15.16700    2     ; C-C-C-C, prebuilt X-ca-cp-X
  1272     1215     1214     1282         9       180.000      15.16700    2     ; C-C-C-H, prebuilt X-ca-ca-X
  1272     1215     1216     1283         9       180.000      15.16700    2     ; C-C-C-H, prebuilt X-ca-ca-X
  1273     1193     1194     1274         9       180.000      15.16700    2     ; H-C-C-H, prebuilt X-ca-ca-X
  1276     1204     1205     1277         9       180.000      15.16700    2     ; H-C-C-H, prebuilt X-ca-ca-X
  1278     1207     1208     1279         9       180.000      15.16700    2     ; H-C-C-H, prebuilt X-ca-ca-X
  1281     1213     1214     1282         9       180.000      15.16700    2     ; H-C-C-H, prebuilt X-ca-ca-X
  1285     1227     1228     1286         9       180.000      15.16700    2     ; H-C-C-H, prebuilt X-ca-ca-X
  1288     1233     1234     1289         9       180.000      15.16700    2     ; H-C-C-H, prebuilt X-ca-ca-X
  1290     1236     1237     1291         9       180.000      15.16700    2     ; H-C-C-H, prebuilt X-ca-ca-X
  1292     1240     1241     1293         9       180.000      15.16700    2     ; H-C-C-H, prebuilt X-ca-ca-X
  1293     1241     1242     1294         9       180.000      15.16700    2     ; H-C-C-H, prebuilt X-ca-ca-X
  1294     1242     1243     1295         9       180.000      15.16700    2     ; H-C-C-H, prebuilt X-ca-ca-X
  1296     1247     1248     1297         9       180.000      15.16700    2     ; H-C-C-H, prebuilt X-ca-ca-X
  1298     1250     1251     1299         9       180.000      15.16700    2     ; H-C-C-H, prebuilt X-ca-ca-X
  1301     1256     1257     1302         9       180.000      15.16700    2     ; H-C-C-H, prebuilt X-ca-ca-X
  1303     1259     1260     1304         9       180.000      15.16700    2     ; H-C-C-H, prebuilt X-ca-ca-X
  1305     1268     1269     1311         9       180.000      15.16700    2     ; H-C-C-C, prebuilt X-ca-cp-X
  1306     1270     1269     1311         9       180.000      15.16700    2     ; H-C-C-C, prebuilt X-ca-cp-X
  1306     1270     1271     1307         9       180.000      15.16700    2     ; H-C-C-H, prebuilt X-ca-ca-X
  1311     1312     1313     1314         9       180.000      15.16700    2     ; C-C-C-C, prebuilt X-ca-ca-X
  1311     1312     1313     1393         9       180.000      15.16700    2     ; C-C-C-H, prebuilt X-ca-ca-X
  1311     1316     1315     1314         9       180.000      15.16700    2     ; C-C-C-C, prebuilt X-ca-ca-X
  1311     1316     1315     1317         9       180.000      15.16700    2     ; C-C-C-C, prebuilt X-ca-ca-X
  1312     1311     1316     1315         9       180.000      15.16700    2     ; C-C-C-C, prebuilt X-ca-cp-X
  1312     1311     1316     1394         9       180.000      15.16700    2     ; C-C-C-H, prebuilt X-ca-cp-X
  1312     1313     1314     1315         9       180.000      15.16700    2     ; C-C-C-C, prebuilt X-ca-ca-X
  1312     1313     1314     1320         9       180.000      15.16700    2     ; C-C-C-C, prebuilt X-ca-ca-X
  1313     1312     1311     1316         9       180.000      15.16700    2     ; C-C-C-C, prebuilt X-ca-cp-X
  1313     1314     1315     1316         9       180.000      15.16700    2     ; C-C-C-C, prebuilt X-ca-ca-X
  1313     1314     1315     1317         9       180.000      15.16700    2     ; C-C-C-C, prebuilt X-ca-ca-X
  1313     1314     1320     1319         9       180.000       4.18400    2     ; C-C-C-N, prebuilt X-c-ca-X
  1313     1314     1320     1321         9       180.000       4.18400    2     ; C-C-C-O, prebuilt X-c-ca-X
  1314     1313     1312     1392         9       180.000      15.16700    2     ; C-C-C-H, prebuilt X-ca-ca-X
  1314     1315     1316     1394         9       180.000      15.16700    2     ; C-C-C-H, prebuilt X-ca-ca-X
  1314     1315     1317     1318         9       180.000       4.18400    2     ; C-C-C-O, prebuilt X-c-ca-X
  1314     1315     1317     1319         9       180.000       4.18400    2     ; C-C-C-N, prebuilt X-c-ca-X
  1314     1320     1319     1317         9       180.000      10.46000    2     ; C-C-N-C, prebuilt X-c-n-X
  1314     1320     1319     1322         9       180.000      10.46000    2     ; C-C-N-C, prebuilt X-c-n-X
  1315     1314     1313     1393         9       180.000      15.16700    2     ; C-C-C-H, prebuilt X-ca-ca-X
  1315     1314     1320     1319         9       180.000       4.18400    2     ; C-C-C-N, prebuilt X-c-ca-X
  1315     1314     1320     1321         9       180.000       4.18400    2     ; C-C-C-O, prebuilt X-c-ca-X
  1315     1317     1319     1320         9       180.000      10.46000    2     ; C-C-N-C, prebuilt X-c-n-X
  1315     1317     1319     1322         9       180.000      10.46000    2     ; C-C-N-C, prebuilt X-c-n-X
  1316     1311     1312     1392         9       180.000      15.16700    2     ; C-C-C-H, prebuilt X-ca-cp-X
  1316     1315     1314     1320         9       180.000      15.16700    2     ; C-C-C-C, prebuilt X-ca-ca-X
  1316     1315     1317     1318         9       180.000       4.18400    2     ; C-C-C-O, prebuilt X-c-ca-X
  1316     1315     1317     1319         9       180.000       4.18400    2     ; C-C-C-N, prebuilt X-c-ca-X
  1317     1315     1314     1320         9       180.000      15.16700    2     ; C-C-C-C, prebuilt X-ca-ca-X
  1317     1315     1316     1394         9       180.000      15.16700    2     ; C-C-C-H, prebuilt X-ca-ca-X
  1317     1319     1320     1321         9       180.000      10.46000    2     ; C-N-C-O, prebuilt X-c-n-X
  1317     1319     1322     1323         9       180.000       1.88280    2     ; C-N-C-C, prebuilt X-ca-n-X
  1317     1319     1322     1327         9       180.000       1.88280    2     ; C-N-C-C, prebuilt X-ca-n-X
  1318     1317     1319     1320         9       180.000      10.46000    2     ; O-C-N-C, prebuilt X-c-n-X
  1318     1317     1319     1322         9       180.000      10.46000    2     ; O-C-N-C, prebuilt X-c-n-X
  1319     1322     1323     1324         9       180.000      15.16700    2     ; N-C-C-C, prebuilt X-ca-ca-X
  1319     1322     1323     1395         9       180.000      15.16700    2     ; N-C-C-H, prebuilt X-ca-ca-X
  1319     1322     1327     1326         9       180.000      15.16700    2     ; N-C-C-C, prebuilt X-ca-ca-X
  1319     1322     1327     1398         9       180.000      15.16700    2     ; N-C-C-H, prebuilt X-ca-ca-X
  1320     1314     1313     1393         9       180.000      15.16700    2     ; C-C-C-H, prebuilt X-ca-ca-X
  1320     1319     1322     1323         9       180.000       1.88280    2     ; C-N-C-C, prebuilt X-ca-n-X
  1320     1319     1322     1327         9       180.000       1.88280    2     ; C-N-C-C, prebuilt X-ca-n-X
  1321     1320     1319     1322         9       180.000      10.46000    2     ; O-C-N-C, prebuilt X-c-n-X
  1322     1323     1324     1325         9       180.000      15.16700    2     ; C-C-C-C, prebuilt X-ca-ca-X
  1322     1323     1324     1396         9       180.000      15.16700    2     ; C-C-C-H, prebuilt X-ca-ca-X
  1322     1327     1326     1325         9       180.000      15.16700    2     ; C-C-C-C, prebuilt X-ca-ca-X
  1322     1327     1326     1397         9       180.000      15.16700    2     ; C-C-C-H, prebuilt X-ca-ca-X
  1323     1322     1327     1326         9       180.000      15.16700    2     ; C-C-C-C, prebuilt X-ca-ca-X
  1323     1322     1327     1398         9       180.000      15.16700    2     ; C-C-C-H, prebuilt X-ca-ca-X
  1323     1324     1325     1326         9       180.000      15.16700    2     ; C-C-C-C, prebuilt X-ca-ca-X
  1323     1324     1325     1328         9       180.000      15.16700    2     ; C-C-C-N, prebuilt X-ca-ca-X
  1324     1323     1322     1327         9       180.000      15.16700    2     ; C-C-C-C, prebuilt X-ca-ca-X
  1324     1325     1326     1327         9       180.000      15.16700    2     ; C-C-C-C, prebuilt X-ca-ca-X
  1324     1325     1326     1397         9       180.000      15.16700    2     ; C-C-C-H, prebuilt X-ca-ca-X
  1324     1325     1328     1329         9       180.000       1.88280    2     ; C-C-N-C, prebuilt X-ca-n-X
  1324     1325     1328     1399         9       180.000       1.88280    2     ; C-C-N-H, prebuilt X-ca-n-X
  1325     1324     1323     1395         9       180.000      15.16700    2     ; C-C-C-H, prebuilt X-ca-ca-X
  1325     1326     1327     1398         9       180.000      15.16700    2     ; C-C-C-H, prebuilt X-ca-ca-X
  1325     1328     1329     1330         9       180.000      10.46000    2     ; C-N-C-O, prebuilt X-c-n-X
  1325     1328     1329     1331         9       180.000      10.46000    2     ; C-N-C-C, prebuilt X-c-n-X
  1326     1325     1324     1396         9       180.000      15.16700    2     ; C-C-C-H, prebuilt X-ca-ca-X
  1326     1325     1328     1329         9       180.000       1.88280    2     ; C-C-N-C, prebuilt X-ca-n-X
  1326     1325     1328     1399         9       180.000       1.88280    2     ; C-C-N-H, prebuilt X-ca-n-X
  1327     1322     1323     1395         9       180.000      15.16700    2     ; C-C-C-H, prebuilt X-ca-ca-X
  1327     1326     1325     1328         9       180.000      15.16700    2     ; C-C-C-N, prebuilt X-ca-ca-X
  1328     1325     1324     1396         9       180.000      15.16700    2     ; N-C-C-H, prebuilt X-ca-ca-X
  1328     1325     1326     1397         9       180.000      15.16700    2     ; N-C-C-H, prebuilt X-ca-ca-X
  1328     1329     1331     1332         9       180.000       4.18400    2     ; N-C-C-C, prebuilt X-c-ca-X
  1328     1329     1331     1336         9       180.000       4.18400    2     ; N-C-C-C, prebuilt X-c-ca-X
  1329     1331     1332     1333         9       180.000      15.16700    2     ; C-C-C-C, prebuilt X-ca-ca-X
  1329     1331     1332     1400         9       180.000      15.16700    2     ; C-C-C-H, prebuilt X-ca-ca-X
  1329     1331     1336     1335         9       180.000      15.16700    2     ; C-C-C-C, prebuilt X-ca-ca-X
  1329     1331     1336     1337         9       180.000      15.16700    2     ; C-C-C-N, prebuilt X-ca-ca-X
  1330     1329     1328     1399         9       180.000      10.46000    2     ; O-C-N-H, prebuilt hn-n-c-o
  1330     1329     1328     1399         9         0.000       8.36800    1     ; O-C-N-H, prebuilt hn-n-c-o
  1330     1329     1331     1332         9       180.000       4.18400    2     ; O-C-C-C, prebuilt X-c-ca-X
  1330     1329     1331     1336         9       180.000       4.18400    2     ; O-C-C-C, prebuilt X-c-ca-X
  1331     1329     1328     1399         9       180.000      10.46000    2     ; C-C-N-H, prebuilt X-c-n-X
  1331     1332     1333     1334         9       180.000      15.16700    2     ; C-C-C-C, prebuilt X-ca-ca-X
  1331     1332     1333     1401         9       180.000      15.16700    2     ; C-C-C-H, prebuilt X-ca-ca-X
  1331     1336     1335     1334         9       180.000      15.16700    2     ; C-C-C-C, prebuilt X-ca-ca-X
  1331     1336     1335     1402         9       180.000      15.16700    2     ; C-C-C-H, prebuilt X-ca-ca-X
  1331     1336     1337     1338         9       180.000       1.88280    2     ; C-C-N-C, prebuilt X-ca-n-X
  1331     1336     1337     1342         9       180.000       1.88280    2     ; C-C-N-C, prebuilt X-ca-n-X
  1332     1331     1336     1335         9       180.000      15.16700    2     ; C-C-C-C, prebuilt X-ca-ca-X
  1332     1331     1336     1337         9       180.000      15.16700    2     ; C-C-C-N, prebuilt X-ca-ca-X
  1332     1333     1334     1335         9       180.000      15.16700    2     ; C-C-C-C, prebuilt X-ca-ca-X
  1332     1333     1334     1391         9       180.000      15.16700    2     ; C-C-C-C, prebuilt X-ca-ca-X
  1333     1332     1331     1336         9       180.000      15.16700    2     ; C-C-C-C, prebuilt X-ca-ca-X
  1333     1334     1335     1336         9       180.000      15.16700    2     ; C-C-C-C, prebuilt X-ca-ca-X
  1333     1334     1335     1402         9       180.000      15.16700    2     ; C-C-C-H, prebuilt X-ca-ca-X
  1333     1334     1391     1427         9         0.000       0.00000    2     ; C-C-C-H, prebuilt X-c3-ca-X
  1333     1334     1391     1428         9         0.000       0.00000    2     ; C-C-C-H, prebuilt X-c3-ca-X
  1333     1334     1391     1429         9         0.000       0.00000    2     ; C-C-C-H, prebuilt X-c3-ca-X
  1334     1333     1332     1400         9       180.000      15.16700    2     ; C-C-C-H, prebuilt X-ca-ca-X
  1334     1335     1336     1337         9       180.000      15.16700    2     ; C-C-C-N, prebuilt X-ca-ca-X
  1335     1334     1333     1401         9       180.000      15.16700    2     ; C-C-C-H, prebuilt X-ca-ca-X
  1335     1334     1391     1427         9         0.000       0.00000    2     ; C-C-C-H, prebuilt X-c3-ca-X
  1335     1334     1391     1428         9         0.000       0.00000    2     ; C-C-C-H, prebuilt X-c3-ca-X
  1335     1334     1391     1429         9         0.000       0.00000    2     ; C-C-C-H, prebuilt X-c3-ca-X
  1335     1336     1337     1338         9       180.000       1.88280    2     ; C-C-N-C, prebuilt X-ca-n-X
  1335     1336     1337     1342         9       180.000       1.88280    2     ; C-C-N-C, prebuilt X-ca-n-X
  1336     1331     1332     1400         9       180.000      15.16700    2     ; C-C-C-H, prebuilt X-ca-ca-X
  1336     1335     1334     1391         9       180.000      15.16700    2     ; C-C-C-C, prebuilt X-ca-ca-X
  1336     1337     1338     1339         9       180.000      10.46000    2     ; C-N-C-O, prebuilt X-c-n-X
  1336     1337     1338     1340         9       180.000      10.46000    2     ; C-N-C-C, prebuilt X-c-n-X
  1336     1337     1342     1341         9       180.000      10.46000    2     ; C-N-C-C, prebuilt X-c-n-X
  1336     1337     1342     1343         9       180.000      10.46000    2     ; C-N-C-O, prebuilt X-c-n-X
  1337     1336     1335     1402         9       180.000      15.16700    2     ; N-C-C-H, prebuilt X-ca-ca-X
  1337     1338     1340     1341         9       180.000       4.18400    2     ; N-C-C-C, prebuilt X-c-ca-X
  1337     1338     1340     1347         9       180.000       4.18400    2     ; N-C-C-C, prebuilt X-c-ca-X
  1337     1342     1341     1340         9       180.000       4.18400    2     ; N-C-C-C, prebuilt X-c-ca-X
  1337     1342     1341     1344         9       180.000       4.18400    2     ; N-C-C-C, prebuilt X-c-ca-X
  1338     1337     1342     1341         9       180.000      10.46000    2     ; C-N-C-C, prebuilt X-c-n-X
  1338     1337     1342     1343         9       180.000      10.46000    2     ; C-N-C-O, prebuilt X-c-n-X
  1338     1340     1341     1342         9       180.000      15.16700    2     ; C-C-C-C, prebuilt X-ca-ca-X
  1338     1340     1341     1344         9       180.000      15.16700    2     ; C-C-C-C, prebuilt X-ca-ca-X
  1338     1340     1347     1346         9       180.000      15.16700    2     ; C-C-C-C, prebuilt X-ca-ca-X
  1338     1340     1347     1405         9       180.000      15.16700    2     ; C-C-C-H, prebuilt X-ca-ca-X
  1339     1338     1337     1342         9       180.000      10.46000    2     ; O-C-N-C, prebuilt X-c-n-X
  1339     1338     1340     1341         9       180.000       4.18400    2     ; O-C-C-C, prebuilt X-c-ca-X
  1339     1338     1340     1347         9       180.000       4.18400    2     ; O-C-C-C, prebuilt X-c-ca-X
  1340     1338     1337     1342         9       180.000      10.46000    2     ; C-C-N-C, prebuilt X-c-n-X
  1340     1341     1342     1343         9       180.000       4.18400    2     ; C-C-C-O, prebuilt X-c-ca-X
  1340     1341     1344     1345         9       180.000      15.16700    2     ; C-C-C-C, prebuilt X-ca-ca-X
  1340     1341     1344     1403         9       180.000      15.16700    2     ; C-C-C-H, prebuilt X-ca-ca-X
  1340     1347     1346     1345         9       180.000      15.16700    2     ; C-C-C-C, prebuilt X-ca-ca-X
  1340     1347     1346     1404         9       180.000      15.16700    2     ; C-C-C-H, prebuilt X-ca-ca-X
  1341     1340     1347     1346         9       180.000      15.16700    2     ; C-C-C-C, prebuilt X-ca-ca-X
  1341     1340     1347     1405         9       180.000      15.16700    2     ; C-C-C-H, prebuilt X-ca-ca-X
  1341     1344     1345     1346         9       180.000      15.16700    2     ; C-C-C-C, prebuilt X-ca-ca-X
  1341     1344     1345     1348         9       180.000      15.16700    2     ; C-C-C-C, prebuilt X-ca-ca-X
  1342     1341     1340     1347         9       180.000      15.16700    2     ; C-C-C-C, prebuilt X-ca-ca-X
  1342     1341     1344     1345         9       180.000      15.16700    2     ; C-C-C-C, prebuilt X-ca-ca-X
  1342     1341     1344     1403         9       180.000      15.16700    2     ; C-C-C-H, prebuilt X-ca-ca-X
  1343     1342     1341     1344         9       180.000       4.18400    2     ; O-C-C-C, prebuilt X-c-ca-X
  1344     1341     1340     1347         9       180.000      15.16700    2     ; C-C-C-C, prebuilt X-ca-ca-X
  1344     1345     1346     1347         9       180.000      15.16700    2     ; C-C-C-C, prebuilt X-ca-ca-X
  1344     1345     1346     1404         9       180.000      15.16700    2     ; C-C-C-H, prebuilt X-ca-ca-X
  1344     1345     1348     1349         9       180.000       4.18400    2     ; C-C-C-O, prebuilt X-c-ca-X
  1344     1345     1348     1350         9       180.000       4.18400    2     ; C-C-C-N, prebuilt X-c-ca-X
  1345     1346     1347     1405         9       180.000      15.16700    2     ; C-C-C-H, prebuilt X-ca-ca-X
  1345     1348     1350     1351         9       180.000      10.46000    2     ; C-C-N-C, prebuilt X-c-n-X
  1345     1348     1350     1406         9       180.000      10.46000    2     ; C-C-N-H, prebuilt X-c-n-X
  1346     1345     1344     1403         9       180.000      15.16700    2     ; C-C-C-H, prebuilt X-ca-ca-X
  1346     1345     1348     1349         9       180.000       4.18400    2     ; C-C-C-O, prebuilt X-c-ca-X
  1346     1345     1348     1350         9       180.000       4.18400    2     ; C-C-C-N, prebuilt X-c-ca-X
  1347     1346     1345     1348         9       180.000      15.16700    2     ; C-C-C-C, prebuilt X-ca-ca-X
  1348     1345     1344     1403         9       180.000      15.16700    2     ; C-C-C-H, prebuilt X-ca-ca-X
  1348     1345     1346     1404         9       180.000      15.16700    2     ; C-C-C-H, prebuilt X-ca-ca-X
  1348     1350     1351     1352         9       180.000       1.88280    2     ; C-N-C-C, prebuilt X-ca-n-X
  1348     1350     1351     1356         9       180.000       1.88280    2     ; C-N-C-C, prebuilt X-ca-n-X
  1349     1348     1350     1351         9       180.000      10.46000    2     ; O-C-N-C, prebuilt X-c-n-X
  1349     1348     1350     1406         9       180.000      10.46000    2     ; O-C-N-H, prebuilt hn-n-c-o
  1349     1348     1350     1406         9         0.000       8.36800    1     ; O-C-N-H, prebuilt hn-n-c-o
  1350     1351     1352     1353         9       180.000      15.16700    2     ; N-C-C-C, prebuilt X-ca-ca-X
  1350     1351     1352     1407         9       180.000      15.16700    2     ; N-C-C-H, prebuilt X-ca-ca-X
  1350     1351     1356     1355         9       180.000      15.16700    2     ; N-C-C-C, prebuilt X-ca-ca-X
  1350     1351     1356     1410         9       180.000      15.16700    2     ; N-C-C-H, prebuilt X-ca-ca-X
  1351     1352     1353     1354         9       180.000      15.16700    2     ; C-C-C-C, prebuilt X-ca-ca-X
  1351     1352     1353     1408         9       180.000      15.16700    2     ; C-C-C-H, prebuilt X-ca-ca-X
  1351     1356     1355     1354         9       180.000      15.16700    2     ; C-C-C-C, prebuilt X-ca-ca-X
  1351     1356     1355     1409         9       180.000      15.16700    2     ; C-C-C-H, prebuilt X-ca-ca-X
  1352     1351     1350     1406         9       180.000       1.88280    2     ; C-C-N-H, prebuilt X-ca-n-X
  1352     1351     1356     1355         9       180.000      15.16700    2     ; C-C-C-C, prebuilt X-ca-ca-X
  1352     1351     1356     1410         9       180.000      15.16700    2     ; C-C-C-H, prebuilt X-ca-ca-X
  1352     1353     1354     1355         9       180.000      15.16700    2     ; C-C-C-C, prebuilt X-ca-ca-X
  1352     1353     1354     1357         9       180.000      15.16700    2     ; C-C-C-O, prebuilt X-ca-ca-X
  1353     1352     1351     1356         9       180.000      15.16700    2     ; C-C-C-C, prebuilt X-ca-ca-X
  1353     1354     1355     1356         9       180.000      15.16700    2     ; C-C-C-C, prebuilt X-ca-ca-X
  1353     1354     1355     1409         9       180.000      15.16700    2     ; C-C-C-H, prebuilt X-ca-ca-X
  1353     1354     1357     1358         9       180.000       3.76560    2     ; C-C-O-C, prebuilt X-ca-os-X
  1354     1353     1352     1407         9       180.000      15.16700    2     ; C-C-C-H, prebuilt X-ca-ca-X
  1354     1355     1356     1410         9       180.000      15.16700    2     ; C-C-C-H, prebuilt X-ca-ca-X
  1354     1357     1358     1359         9       180.000       3.76560    2     ; C-O-C-C, prebuilt X-ca-os-X
  1354     1357     1358     1363         9       180.000       3.76560    2     ; C-O-C-C, prebuilt X-ca-os-X
  1355     1354     1353     1408         9       180.000      15.16700    2     ; C-C-C-H, prebuilt X-ca-ca-X
  1355     1354     1357     1358         9       180.000       3.76560    2     ; C-C-O-C, prebuilt X-ca-os-X
  1356     1351     1350     1406         9       180.000       1.88280    2     ; C-C-N-H, prebuilt X-ca-n-X
  1356     1351     1352     1407         9       180.000      15.16700    2     ; C-C-C-H, prebuilt X-ca-ca-X
  1356     1355     1354     1357         9       180.000      15.16700    2     ; C-C-C-O, prebuilt X-ca-ca-X
  1357     1354     1353     1408         9       180.000      15.16700    2     ; O-C-C-H, prebuilt X-ca-ca-X
  1357     1354     1355     1409         9       180.000      15.16700    2     ; O-C-C-H, prebuilt X-ca-ca-X
  1357     1358     1359     1360         9       180.000      15.16700    2     ; O-C-C-C, prebuilt X-ca-ca-X
  1357     1358     1359     1411         9       180.000      15.16700    2     ; O-C-C-H, prebuilt X-ca-ca-X
  1357     1358     1363     1362         9       180.000      15.16700    2     ; O-C-C-C, prebuilt X-ca-ca-X
  1357     1358     1363     1364         9       180.000      15.16700    2     ; O-C-C-O, prebuilt X-ca-ca-X
  1358     1359     1360     1361         9       180.000      15.16700    2     ; C-C-C-C, prebuilt X-ca-ca-X
  1358     1359     1360     1412         9       180.000      15.16700    2     ; C-C-C-H, prebuilt X-ca-ca-X
  1358     1363     1362     1361         9       180.000      15.16700    2     ; C-C-C-C, prebuilt X-ca-ca-X
  1358     1363     1362     1414         9       180.000      15.16700    2     ; C-C-C-H, prebuilt X-ca-ca-X
  1358     1363     1364     1365         9       180.000       3.76560    2     ; C-C-O-C, prebuilt X-ca-os-X
  1359     1358     1363     1362         9       180.000      15.16700    2     ; C-C-C-C, prebuilt X-ca-ca-X
  1359     1358     1363     1364         9       180.000      15.16700    2     ; C-C-C-O, prebuilt X-ca-ca-X
  1359     1360     1361     1362         9       180.000      15.16700    2     ; C-C-C-C, prebuilt X-ca-ca-X
  1359     1360     1361     1413         9       180.000      15.16700    2     ; C-C-C-H, prebuilt X-ca-ca-X
  1360     1359     1358     1363         9       180.000      15.16700    2     ; C-C-C-C, prebuilt X-ca-ca-X
  1360     1361     1362     1363         9       180.000      15.16700    2     ; C-C-C-C, prebuilt X-ca-ca-X
  1360     1361     1362     1414         9       180.000      15.16700    2     ; C-C-C-H, prebuilt X-ca-ca-X
  1361     1360     1359     1411         9       180.000      15.16700    2     ; C-C-C-H, prebuilt X-ca-ca-X
  1361     1362     1363     1364         9       180.000      15.16700    2     ; C-C-C-O, prebuilt X-ca-ca-X
  1362     1361     1360     1412         9       180.000      15.16700    2     ; C-C-C-H, prebuilt X-ca-ca-X
  1362     1363     1364     1365         9       180.000       3.76560    2     ; C-C-O-C, prebuilt X-ca-os-X
  1363     1358     1359     1411         9       180.000      15.16700    2     ; C-C-C-H, prebuilt X-ca-ca-X
  1363     1362     1361     1413         9       180.000      15.16700    2     ; C-C-C-H, prebuilt X-ca-ca-X
  1363     1364     1365     1366         9       180.000       3.76560    2     ; C-O-C-C, prebuilt X-ca-os-X
  1363     1364     1365     1370         9       180.000       3.76560    2     ; C-O-C-C, prebuilt X-ca-os-X
  1364     1363     1362     1414         9       180.000      15.16700    2     ; O-C-C-H, prebuilt X-ca-ca-X
  1364     1365     1366     1367         9       180.000      15.16700    2     ; O-C-C-C, prebuilt X-ca-ca-X
  1364     1365     1366     1415         9       180.000      15.16700    2     ; O-C-C-H, prebuilt X-ca-ca-X
  1364     1365     1370     1369         9       180.000      15.16700    2     ; O-C-C-C, prebuilt X-ca-ca-X
  1364     1365     1370     1418         9       180.000      15.16700    2     ; O-C-C-H, prebuilt X-ca-ca-X
  1365     1366     1367     1368         9       180.000      15.16700    2     ; C-C-C-C, prebuilt X-ca-ca-X
  1365     1366     1367     1416         9       180.000      15.16700    2     ; C-C-C-H, prebuilt X-ca-ca-X
  1365     1370     1369     1368         9       180.000      15.16700    2     ; C-C-C-C, prebuilt X-ca-ca-X
  1365     1370     1369     1417         9       180.000      15.16700    2     ; C-C-C-H, prebuilt X-ca-ca-X
  1366     1365     1370     1369         9       180.000      15.16700    2     ; C-C-C-C, prebuilt X-ca-ca-X
  1366     1365     1370     1418         9       180.000      15.16700    2     ; C-C-C-H, prebuilt X-ca-ca-X
  1366     1367     1368     1369         9       180.000      15.16700    2     ; C-C-C-C, prebuilt X-ca-ca-X
  1366     1367     1368     1371         9       180.000      15.16700    2     ; C-C-C-N, prebuilt X-ca-ca-X
  1367     1366     1365     1370         9       180.000      15.16700    2     ; C-C-C-C, prebuilt X-ca-ca-X
  1367     1368     1369     1370         9       180.000      15.16700    2     ; C-C-C-C, prebuilt X-ca-ca-X
  1367     1368     1369     1417         9       180.000      15.16700    2     ; C-C-C-H, prebuilt X-ca-ca-X
  1367     1368     1371     1372         9       180.000       1.88280    2     ; C-C-N-C, prebuilt X-ca-n-X
  1367     1368     1371     1419         9       180.000       1.88280    2     ; C-C-N-H, prebuilt X-ca-n-X
  1368     1367     1366     1415         9       180.000      15.16700    2     ; C-C-C-H, prebuilt X-ca-ca-X
  1368     1369     1370     1418         9       180.000      15.16700    2     ; C-C-C-H, prebuilt X-ca-ca-X
  1368     1371     1372     1373         9       180.000      10.46000    2     ; C-N-C-O, prebuilt X-c-n-X
  1368     1371     1372     1374         9       180.000      10.46000    2     ; C-N-C-C, prebuilt X-c-n-X
  1369     1368     1367     1416         9       180.000      15.16700    2     ; C-C-C-H, prebuilt X-ca-ca-X
  1369     1368     1371     1372         9       180.000       1.88280    2     ; C-C-N-C, prebuilt X-ca-n-X
  1369     1368     1371     1419         9       180.000       1.88280    2     ; C-C-N-H, prebuilt X-ca-n-X
  1370     1365     1366     1415         9       180.000      15.16700    2     ; C-C-C-H, prebuilt X-ca-ca-X
  1370     1369     1368     1371         9       180.000      15.16700    2     ; C-C-C-N, prebuilt X-ca-ca-X
  1371     1368     1367     1416         9       180.000      15.16700    2     ; N-C-C-H, prebuilt X-ca-ca-X
  1371     1368     1369     1417         9       180.000      15.16700    2     ; N-C-C-H, prebuilt X-ca-ca-X
  1371     1372     1374     1375         9       180.000       4.18400    2     ; N-C-C-C, prebuilt X-c-ca-X
  1371     1372     1374     1379         9       180.000       4.18400    2     ; N-C-C-C, prebuilt X-c-ca-X
  1372     1374     1375     1376         9       180.000      15.16700    2     ; C-C-C-C, prebuilt X-ca-ca-X
  1372     1374     1375     1420         9       180.000      15.16700    2     ; C-C-C-H, prebuilt X-ca-ca-X
  1372     1374     1379     1378         9       180.000      15.16700    2     ; C-C-C-C, prebuilt X-ca-ca-X
  1372     1374     1379     1423         9       180.000      15.16700    2     ; C-C-C-H, prebuilt X-ca-ca-X
  1373     1372     1371     1419         9       180.000      10.46000    2     ; O-C-N-H, prebuilt hn-n-c-o
  1373     1372     1371     1419         9         0.000       8.36800    1     ; O-C-N-H, prebuilt hn-n-c-o
  1373     1372     1374     1375         9       180.000       4.18400    2     ; O-C-C-C, prebuilt X-c-ca-X
  1373     1372     1374     1379         9       180.000       4.18400    2     ; O-C-C-C, prebuilt X-c-ca-X
  1374     1372     1371     1419         9       180.000      10.46000    2     ; C-C-N-H, prebuilt X-c-n-X
  1374     1375     1376     1377         9       180.000      15.16700    2     ; C-C-C-C, prebuilt X-ca-ca-X
  1374     1375     1376     1421         9       180.000      15.16700    2     ; C-C-C-H, prebuilt X-ca-ca-X
  1374     1379     1378     1377         9       180.000      15.16700    2     ; C-C-C-C, prebuilt X-ca-ca-X
  1374     1379     1378     1422         9       180.000      15.16700    2     ; C-C-C-H, prebuilt X-ca-ca-X
  1375     1374     1379     1378         9       180.000      15.16700    2     ; C-C-C-C, prebuilt X-ca-ca-X
  1375     1374     1379     1423         9       180.000      15.16700    2     ; C-C-C-H, prebuilt X-ca-ca-X
  1375     1376     1377     1378         9       180.000      15.16700    2     ; C-C-C-C, prebuilt X-ca-ca-X
  1375     1376     1377     1380         9       180.000      15.16700    2     ; C-C-C-N, prebuilt X-ca-ca-X
  1376     1375     1374     1379         9       180.000      15.16700    2     ; C-C-C-C, prebuilt X-ca-ca-X
  1376     1377     1378     1379         9       180.000      15.16700    2     ; C-C-C-C, prebuilt X-ca-ca-X
  1376     1377     1378     1422         9       180.000      15.16700    2     ; C-C-C-H, prebuilt X-ca-ca-X
  1376     1377     1380     1381         9       180.000       1.88280    2     ; C-C-N-C, prebuilt X-ca-n-X
  1376     1377     1380     1385         9       180.000       1.88280    2     ; C-C-N-C, prebuilt X-ca-n-X
  1377     1376     1375     1420         9       180.000      15.16700    2     ; C-C-C-H, prebuilt X-ca-ca-X
  1377     1378     1379     1423         9       180.000      15.16700    2     ; C-C-C-H, prebuilt X-ca-ca-X
  1377     1380     1381     1382         9       180.000      10.46000    2     ; C-N-C-O, prebuilt X-c-n-X
  1377     1380     1381     1383         9       180.000      10.46000    2     ; C-N-C-C, prebuilt X-c-n-X
  1377     1380     1385     1384         9       180.000      10.46000    2     ; C-N-C-C, prebuilt X-c-n-X
  1377     1380     1385     1386         9       180.000      10.46000    2     ; C-N-C-O, prebuilt X-c-n-X
  1378     1377     1376     1421         9       180.000      15.16700    2     ; C-C-C-H, prebuilt X-ca-ca-X
  1378     1377     1380     1381         9       180.000       1.88280    2     ; C-C-N-C, prebuilt X-ca-n-X
  1378     1377     1380     1385         9       180.000       1.88280    2     ; C-C-N-C, prebuilt X-ca-n-X
  1379     1374     1375     1420         9       180.000      15.16700    2     ; C-C-C-H, prebuilt X-ca-ca-X
  1379     1378     1377     1380         9       180.000      15.16700    2     ; C-C-C-N, prebuilt X-ca-ca-X
  1380     1377     1376     1421         9       180.000      15.16700    2     ; N-C-C-H, prebuilt X-ca-ca-X
  1380     1377     1378     1422         9       180.000      15.16700    2     ; N-C-C-H, prebuilt X-ca-ca-X
  1380     1381     1383     1384         9       180.000       4.18400    2     ; N-C-C-C, prebuilt X-c-ca-X
  1380     1381     1383     1390         9       180.000       4.18400    2     ; N-C-C-C, prebuilt X-c-ca-X
  1380     1385     1384     1383         9       180.000       4.18400    2     ; N-C-C-C, prebuilt X-c-ca-X
  1380     1385     1384     1387         9       180.000       4.18400    2     ; N-C-C-C, prebuilt X-c-ca-X
  1381     1380     1385     1384         9       180.000      10.46000    2     ; C-N-C-C, prebuilt X-c-n-X
  1381     1380     1385     1386         9       180.000      10.46000    2     ; C-N-C-O, prebuilt X-c-n-X
  1381     1383     1384     1385         9       180.000      15.16700    2     ; C-C-C-C, prebuilt X-ca-ca-X
  1381     1383     1384     1387         9       180.000      15.16700    2     ; C-C-C-C, prebuilt X-ca-ca-X
  1381     1383     1390     1389         9       180.000      15.16700    2     ; C-C-C-C, prebuilt X-ca-ca-X
  1381     1383     1390     1426         9       180.000      15.16700    2     ; C-C-C-H, prebuilt X-ca-ca-X
  1382     1381     1380     1385         9       180.000      10.46000    2     ; O-C-N-C, prebuilt X-c-n-X
  1382     1381     1383     1384         9       180.000       4.18400    2     ; O-C-C-C, prebuilt X-c-ca-X
  1382     1381     1383     1390         9       180.000       4.18400    2     ; O-C-C-C, prebuilt X-c-ca-X
  1383     1381     1380     1385         9       180.000      10.46000    2     ; C-C-N-C, prebuilt X-c-n-X
  1383     1384     1385     1386         9       180.000       4.18400    2     ; C-C-C-O, prebuilt X-c-ca-X
  1383     1384     1387     1388         9       180.000      15.16700    2     ; C-C-C-C, prebuilt X-ca-ca-X
  1383     1384     1387     1424         9       180.000      15.16700    2     ; C-C-C-H, prebuilt X-ca-ca-X
  1383     1390     1389     1388         9       180.000      15.16700    2     ; C-C-C-C, prebuilt X-ca-ca-X
  1383     1390     1389     1425         9       180.000      15.16700    2     ; C-C-C-H, prebuilt X-ca-ca-X
  1384     1383     1390     1389         9       180.000      15.16700    2     ; C-C-C-C, prebuilt X-ca-ca-X
  1384     1383     1390     1426         9       180.000      15.16700    2     ; C-C-C-H, prebuilt X-ca-ca-X
  1384     1387     1388     1389         9       180.000      15.16700    2     ; C-C-C-C, prebuilt X-ca-cp-X
  1384     1387     1388     1430         9       180.000      15.16700    2     ; C-C-C-C, prebuilt X-ca-cp-X
  1385     1384     1383     1390         9       180.000      15.16700    2     ; C-C-C-C, prebuilt X-ca-ca-X
  1385     1384     1387     1388         9       180.000      15.16700    2     ; C-C-C-C, prebuilt X-ca-ca-X
  1385     1384     1387     1424         9       180.000      15.16700    2     ; C-C-C-H, prebuilt X-ca-ca-X
  1386     1385     1384     1387         9       180.000       4.18400    2     ; O-C-C-C, prebuilt X-c-ca-X
  1387     1384     1383     1390         9       180.000      15.16700    2     ; C-C-C-C, prebuilt X-ca-ca-X
  1387     1388     1389     1390         9       180.000      15.16700    2     ; C-C-C-C, prebuilt X-ca-cp-X
  1387     1388     1389     1425         9       180.000      15.16700    2     ; C-C-C-H, prebuilt X-ca-cp-X
  1387     1388     1430     1431         9       180.000       4.18400    2     ; C-C-C-C, prebuilt X-cp-cp-X
  1387     1388     1430     1435         9       180.000       4.18400    2     ; C-C-C-C, prebuilt X-cp-cp-X
  1388     1389     1390     1426         9       180.000      15.16700    2     ; C-C-C-H, prebuilt X-ca-ca-X
  1388     1430     1431     1432         9       180.000      15.16700    2     ; C-C-C-C, prebuilt X-ca-cp-X
  1388     1430     1431     1511         9       180.000      15.16700    2     ; C-C-C-H, prebuilt X-ca-cp-X
  1388     1430     1435     1434         9       180.000      15.16700    2     ; C-C-C-C, prebuilt X-ca-cp-X
  1388     1430     1435     1513         9       180.000      15.16700    2     ; C-C-C-H, prebuilt X-ca-cp-X
  1389     1388     1387     1424         9       180.000      15.16700    2     ; C-C-C-H, prebuilt X-ca-cp-X
  1389     1388     1430     1431         9       180.000       4.18400    2     ; C-C-C-C, prebuilt X-cp-cp-X
  1389     1388     1430     1435         9       180.000       4.18400    2     ; C-C-C-C, prebuilt X-cp-cp-X
  1390     1389     1388     1430         9       180.000      15.16700    2     ; C-C-C-C, prebuilt X-ca-cp-X
  1391     1334     1333     1401         9       180.000      15.16700    2     ; C-C-C-H, prebuilt X-ca-ca-X
  1391     1334     1335     1402         9       180.000      15.16700    2     ; C-C-C-H, prebuilt X-ca-ca-X
  1392     1312     1313     1393         9       180.000      15.16700    2     ; H-C-C-H, prebuilt X-ca-ca-X
  1395     1323     1324     1396         9       180.000      15.16700    2     ; H-C-C-H, prebuilt X-ca-ca-X
  1397     1326     1327     1398         9       180.000      15.16700    2     ; H-C-C-H, prebuilt X-ca-ca-X
  1400     1332     1333     1401         9       180.000      15.16700    2     ; H-C-C-H, prebuilt X-ca-ca-X
  1404     1346     1347     1405         9       180.000      15.16700    2     ; H-C-C-H, prebuilt X-ca-ca-X
  1407     1352     1353     1408         9       180.000      15.16700    2     ; H-C-C-H, prebuilt X-ca-ca-X
  1409     1355     1356     1410         9       180.000      15.16700    2     ; H-C-C-H, prebuilt X-ca-ca-X
  1411     1359     1360     1412         9       180.000      15.16700    2     ; H-C-C-H, prebuilt X-ca-ca-X
  1412     1360     1361     1413         9       180.000      15.16700    2     ; H-C-C-H, prebuilt X-ca-ca-X
  1413     1361     1362     1414         9       180.000      15.16700    2     ; H-C-C-H, prebuilt X-ca-ca-X
  1415     1366     1367     1416         9       180.000      15.16700    2     ; H-C-C-H, prebuilt X-ca-ca-X
  1417     1369     1370     1418         9       180.000      15.16700    2     ; H-C-C-H, prebuilt X-ca-ca-X
  1420     1375     1376     1421         9       180.000      15.16700    2     ; H-C-C-H, prebuilt X-ca-ca-X
  1422     1378     1379     1423         9       180.000      15.16700    2     ; H-C-C-H, prebuilt X-ca-ca-X
  1424     1387     1388     1430         9       180.000      15.16700    2     ; H-C-C-C, prebuilt X-ca-cp-X
  1425     1389     1388     1430         9       180.000      15.16700    2     ; H-C-C-C, prebuilt X-ca-cp-X
  1425     1389     1390     1426         9       180.000      15.16700    2     ; H-C-C-H, prebuilt X-ca-ca-X
  1430     1431     1432     1433         9       180.000      15.16700    2     ; C-C-C-C, prebuilt X-ca-ca-X
  1430     1431     1432     1512         9       180.000      15.16700    2     ; C-C-C-H, prebuilt X-ca-ca-X
  1430     1435     1434     1433         9       180.000      15.16700    2     ; C-C-C-C, prebuilt X-ca-ca-X
  1430     1435     1434     1436         9       180.000      15.16700    2     ; C-C-C-C, prebuilt X-ca-ca-X
  1431     1430     1435     1434         9       180.000      15.16700    2     ; C-C-C-C, prebuilt X-ca-cp-X
  1431     1430     1435     1513         9       180.000      15.16700    2     ; C-C-C-H, prebuilt X-ca-cp-X
  1431     1432     1433     1434         9       180.000      15.16700    2     ; C-C-C-C, prebuilt X-ca-ca-X
  1431     1432     1433     1439         9       180.000      15.16700    2     ; C-C-C-C, prebuilt X-ca-ca-X
  1432     1431     1430     1435         9       180.000      15.16700    2     ; C-C-C-C, prebuilt X-ca-cp-X
  1432     1433     1434     1435         9       180.000      15.16700    2     ; C-C-C-C, prebuilt X-ca-ca-X
  1432     1433     1434     1436         9       180.000      15.16700    2     ; C-C-C-C, prebuilt X-ca-ca-X
  1432     1433     1439     1438         9       180.000       4.18400    2     ; C-C-C-N, prebuilt X-c-ca-X
  1432     1433     1439     1440         9       180.000       4.18400    2     ; C-C-C-O, prebuilt X-c-ca-X
  1433     1432     1431     1511         9       180.000      15.16700    2     ; C-C-C-H, prebuilt X-ca-ca-X
  1433     1434     1435     1513         9       180.000      15.16700    2     ; C-C-C-H, prebuilt X-ca-ca-X
  1433     1434     1436     1437         9       180.000       4.18400    2     ; C-C-C-O, prebuilt X-c-ca-X
  1433     1434     1436     1438         9       180.000       4.18400    2     ; C-C-C-N, prebuilt X-c-ca-X
  1433     1439     1438     1436         9       180.000      10.46000    2     ; C-C-N-C, prebuilt X-c-n-X
  1433     1439     1438     1441         9       180.000      10.46000    2     ; C-C-N-C, prebuilt X-c-n-X
  1434     1433     1432     1512         9       180.000      15.16700    2     ; C-C-C-H, prebuilt X-ca-ca-X
  1434     1433     1439     1438         9       180.000       4.18400    2     ; C-C-C-N, prebuilt X-c-ca-X
  1434     1433     1439     1440         9       180.000       4.18400    2     ; C-C-C-O, prebuilt X-c-ca-X
  1434     1436     1438     1439         9       180.000      10.46000    2     ; C-C-N-C, prebuilt X-c-n-X
  1434     1436     1438     1441         9       180.000      10.46000    2     ; C-C-N-C, prebuilt X-c-n-X
  1435     1430     1431     1511         9       180.000      15.16700    2     ; C-C-C-H, prebuilt X-ca-cp-X
  1435     1434     1433     1439         9       180.000      15.16700    2     ; C-C-C-C, prebuilt X-ca-ca-X
  1435     1434     1436     1437         9       180.000       4.18400    2     ; C-C-C-O, prebuilt X-c-ca-X
  1435     1434     1436     1438         9       180.000       4.18400    2     ; C-C-C-N, prebuilt X-c-ca-X
  1436     1434     1433     1439         9       180.000      15.16700    2     ; C-C-C-C, prebuilt X-ca-ca-X
  1436     1434     1435     1513         9       180.000      15.16700    2     ; C-C-C-H, prebuilt X-ca-ca-X
  1436     1438     1439     1440         9       180.000      10.46000    2     ; C-N-C-O, prebuilt X-c-n-X
  1436     1438     1441     1442         9       180.000       1.88280    2     ; C-N-C-C, prebuilt X-ca-n-X
  1436     1438     1441     1446         9       180.000       1.88280    2     ; C-N-C-C, prebuilt X-ca-n-X
  1437     1436     1438     1439         9       180.000      10.46000    2     ; O-C-N-C, prebuilt X-c-n-X
  1437     1436     1438     1441         9       180.000      10.46000    2     ; O-C-N-C, prebuilt X-c-n-X
  1438     1441     1442     1443         9       180.000      15.16700    2     ; N-C-C-C, prebuilt X-ca-ca-X
  1438     1441     1442     1514         9       180.000      15.16700    2     ; N-C-C-H, prebuilt X-ca-ca-X
  1438     1441     1446     1445         9       180.000      15.16700    2     ; N-C-C-C, prebuilt X-ca-ca-X
  1438     1441     1446     1517         9       180.000      15.16700    2     ; N-C-C-H, prebuilt X-ca-ca-X
  1439     1433     1432     1512         9       180.000      15.16700    2     ; C-C-C-H, prebuilt X-ca-ca-X
  1439     1438     1441     1442         9       180.000       1.88280    2     ; C-N-C-C, prebuilt X-ca-n-X
  1439     1438     1441     1446         9       180.000       1.88280    2     ; C-N-C-C, prebuilt X-ca-n-X
  1440     1439     1438     1441         9       180.000      10.46000    2     ; O-C-N-C, prebuilt X-c-n-X
  1441     1442     1443     1444         9       180.000      15.16700    2     ; C-C-C-C, prebuilt X-ca-ca-X
  1441     1442     1443     1515         9       180.000      15.16700    2     ; C-C-C-H, prebuilt X-ca-ca-X
  1441     1446     1445     1444         9       180.000      15.16700    2     ; C-C-C-C, prebuilt X-ca-ca-X
  1441     1446     1445     1516         9       180.000      15.16700    2     ; C-C-C-H, prebuilt X-ca-ca-X
  1442     1441     1446     1445         9       180.000      15.16700    2     ; C-C-C-C, prebuilt X-ca-ca-X
  1442     1441     1446     1517         9       180.000      15.16700    2     ; C-C-C-H, prebuilt X-ca-ca-X
  1442     1443     1444     1445         9       180.000      15.16700    2     ; C-C-C-C, prebuilt X-ca-ca-X
  1442     1443     1444     1447         9       180.000      15.16700    2     ; C-C-C-N, prebuilt X-ca-ca-X
  1443     1442     1441     1446         9       180.000      15.16700    2     ; C-C-C-C, prebuilt X-ca-ca-X
  1443     1444     1445     1446         9       180.000      15.16700    2     ; C-C-C-C, prebuilt X-ca-ca-X
  1443     1444     1445     1516         9       180.000      15.16700    2     ; C-C-C-H, prebuilt X-ca-ca-X
  1443     1444     1447     1448         9       180.000       1.88280    2     ; C-C-N-C, prebuilt X-ca-n-X
  1443     1444     1447     1518         9       180.000       1.88280    2     ; C-C-N-H, prebuilt X-ca-n-X
  1444     1443     1442     1514         9       180.000      15.16700    2     ; C-C-C-H, prebuilt X-ca-ca-X
  1444     1445     1446     1517         9       180.000      15.16700    2     ; C-C-C-H, prebuilt X-ca-ca-X
  1444     1447     1448     1449         9       180.000      10.46000    2     ; C-N-C-O, prebuilt X-c-n-X
  1444     1447     1448     1450         9       180.000      10.46000    2     ; C-N-C-C, prebuilt X-c-n-X
  1445     1444     1443     1515         9       180.000      15.16700    2     ; C-C-C-H, prebuilt X-ca-ca-X
  1445     1444     1447     1448         9       180.000       1.88280    2     ; C-C-N-C, prebuilt X-ca-n-X
  1445     1444     1447     1518         9       180.000       1.88280    2     ; C-C-N-H, prebuilt X-ca-n-X
  1446     1441     1442     1514         9       180.000      15.16700    2     ; C-C-C-H, prebuilt X-ca-ca-X
  1446     1445     1444     1447         9       180.000      15.16700    2     ; C-C-C-N, prebuilt X-ca-ca-X
  1447     1444     1443     1515         9       180.000      15.16700    2     ; N-C-C-H, prebuilt X-ca-ca-X
  1447     1444     1445     1516         9       180.000      15.16700    2     ; N-C-C-H, prebuilt X-ca-ca-X
  1447     1448     1450     1451         9       180.000       4.18400    2     ; N-C-C-C, prebuilt X-c-ca-X
  1447     1448     1450     1455         9       180.000       4.18400    2     ; N-C-C-C, prebuilt X-c-ca-X
  1448     1450     1451     1452         9       180.000      15.16700    2     ; C-C-C-C, prebuilt X-ca-ca-X
  1448     1450     1451     1519         9       180.000      15.16700    2     ; C-C-C-H, prebuilt X-ca-ca-X
  1448     1450     1455     1454         9       180.000      15.16700    2     ; C-C-C-C, prebuilt X-ca-ca-X
  1448     1450     1455     1456         9       180.000      15.16700    2     ; C-C-C-N, prebuilt X-ca-ca-X
  1449     1448     1447     1518         9       180.000      10.46000    2     ; O-C-N-H, prebuilt hn-n-c-o
  1449     1448     1447     1518         9         0.000       8.36800    1     ; O-C-N-H, prebuilt hn-n-c-o
  1449     1448     1450     1451         9       180.000       4.18400    2     ; O-C-C-C, prebuilt X-c-ca-X
  1449     1448     1450     1455         9       180.000       4.18400    2     ; O-C-C-C, prebuilt X-c-ca-X
  1450     1448     1447     1518         9       180.000      10.46000    2     ; C-C-N-H, prebuilt X-c-n-X
  1450     1451     1452     1453         9       180.000      15.16700    2     ; C-C-C-C, prebuilt X-ca-ca-X
  1450     1451     1452     1520         9       180.000      15.16700    2     ; C-C-C-H, prebuilt X-ca-ca-X
  1450     1455     1454     1453         9       180.000      15.16700    2     ; C-C-C-C, prebuilt X-ca-ca-X
  1450     1455     1454     1521         9       180.000      15.16700    2     ; C-C-C-H, prebuilt X-ca-ca-X
  1450     1455     1456     1457         9       180.000       1.88280    2     ; C-C-N-C, prebuilt X-ca-n-X
  1450     1455     1456     1461         9       180.000       1.88280    2     ; C-C-N-C, prebuilt X-ca-n-X
  1451     1450     1455     1454         9       180.000      15.16700    2     ; C-C-C-C, prebuilt X-ca-ca-X
  1451     1450     1455     1456         9       180.000      15.16700    2     ; C-C-C-N, prebuilt X-ca-ca-X
  1451     1452     1453     1454         9       180.000      15.16700    2     ; C-C-C-C, prebuilt X-ca-ca-X
  1451     1452     1453     1510         9       180.000      15.16700    2     ; C-C-C-C, prebuilt X-ca-ca-X
  1452     1451     1450     1455         9       180.000      15.16700    2     ; C-C-C-C, prebuilt X-ca-ca-X
  1452     1453     1454     1455         9       180.000      15.16700    2     ; C-C-C-C, prebuilt X-ca-ca-X
  1452     1453     1454     1521         9       180.000      15.16700    2     ; C-C-C-H, prebuilt X-ca-ca-X
  1452     1453     1510     1546         9         0.000       0.00000    2     ; C-C-C-H, prebuilt X-c3-ca-X
  1452     1453     1510     1547         9         0.000       0.00000    2     ; C-C-C-H, prebuilt X-c3-ca-X
  1452     1453     1510     1548         9         0.000       0.00000    2     ; C-C-C-H, prebuilt X-c3-ca-X
  1453     1452     1451     1519         9       180.000      15.16700    2     ; C-C-C-H, prebuilt X-ca-ca-X
  1453     1454     1455     1456         9       180.000      15.16700    2     ; C-C-C-N, prebuilt X-ca-ca-X
  1454     1453     1452     1520         9       180.000      15.16700    2     ; C-C-C-H, prebuilt X-ca-ca-X
  1454     1453     1510     1546         9         0.000       0.00000    2     ; C-C-C-H, prebuilt X-c3-ca-X
  1454     1453     1510     1547         9         0.000       0.00000    2     ; C-C-C-H, prebuilt X-c3-ca-X
  1454     1453     1510     1548         9         0.000       0.00000    2     ; C-C-C-H, prebuilt X-c3-ca-X
  1454     1455     1456     1457         9       180.000       1.88280    2     ; C-C-N-C, prebuilt X-ca-n-X
  1454     1455     1456     1461         9       180.000       1.88280    2     ; C-C-N-C, prebuilt X-ca-n-X
  1455     1450     1451     1519         9       180.000      15.16700    2     ; C-C-C-H, prebuilt X-ca-ca-X
  1455     1454     1453     1510         9       180.000      15.16700    2     ; C-C-C-C, prebuilt X-ca-ca-X
  1455     1456     1457     1458         9       180.000      10.46000    2     ; C-N-C-O, prebuilt X-c-n-X
  1455     1456     1457     1459         9       180.000      10.46000    2     ; C-N-C-C, prebuilt X-c-n-X
  1455     1456     1461     1460         9       180.000      10.46000    2     ; C-N-C-C, prebuilt X-c-n-X
  1455     1456     1461     1462         9       180.000      10.46000    2     ; C-N-C-O, prebuilt X-c-n-X
  1456     1455     1454     1521         9       180.000      15.16700    2     ; N-C-C-H, prebuilt X-ca-ca-X
  1456     1457     1459     1460         9       180.000       4.18400    2     ; N-C-C-C, prebuilt X-c-ca-X
  1456     1457     1459     1466         9       180.000       4.18400    2     ; N-C-C-C, prebuilt X-c-ca-X
  1456     1461     1460     1459         9       180.000       4.18400    2     ; N-C-C-C, prebuilt X-c-ca-X
  1456     1461     1460     1463         9       180.000       4.18400    2     ; N-C-C-C, prebuilt X-c-ca-X
  1457     1456     1461     1460         9       180.000      10.46000    2     ; C-N-C-C, prebuilt X-c-n-X
  1457     1456     1461     1462         9       180.000      10.46000    2     ; C-N-C-O, prebuilt X-c-n-X
  1457     1459     1460     1461         9       180.000      15.16700    2     ; C-C-C-C, prebuilt X-ca-ca-X
  1457     1459     1460     1463         9       180.000      15.16700    2     ; C-C-C-C, prebuilt X-ca-ca-X
  1457     1459     1466     1465         9       180.000      15.16700    2     ; C-C-C-C, prebuilt X-ca-ca-X
  1457     1459     1466     1524         9       180.000      15.16700    2     ; C-C-C-H, prebuilt X-ca-ca-X
  1458     1457     1456     1461         9       180.000      10.46000    2     ; O-C-N-C, prebuilt X-c-n-X
  1458     1457     1459     1460         9       180.000       4.18400    2     ; O-C-C-C, prebuilt X-c-ca-X
  1458     1457     1459     1466         9       180.000       4.18400    2     ; O-C-C-C, prebuilt X-c-ca-X
  1459     1457     1456     1461         9       180.000      10.46000    2     ; C-C-N-C, prebuilt X-c-n-X
  1459     1460     1461     1462         9       180.000       4.18400    2     ; C-C-C-O, prebuilt X-c-ca-X
  1459     1460     1463     1464         9       180.000      15.16700    2     ; C-C-C-C, prebuilt X-ca-ca-X
  1459     1460     1463     1522         9       180.000      15.16700    2     ; C-C-C-H, prebuilt X-ca-ca-X
  1459     1466     1465     1464         9       180.000      15.16700    2     ; C-C-C-C, prebuilt X-ca-ca-X
  1459     1466     1465     1523         9       180.000      15.16700    2     ; C-C-C-H, prebuilt X-ca-ca-X
  1460     1459     1466     1465         9       180.000      15.16700    2     ; C-C-C-C, prebuilt X-ca-ca-X
  1460     1459     1466     1524         9       180.000      15.16700    2     ; C-C-C-H, prebuilt X-ca-ca-X
  1460     1463     1464     1465         9       180.000      15.16700    2     ; C-C-C-C, prebuilt X-ca-ca-X
  1460     1463     1464     1467         9       180.000      15.16700    2     ; C-C-C-C, prebuilt X-ca-ca-X
  1461     1460     1459     1466         9       180.000      15.16700    2     ; C-C-C-C, prebuilt X-ca-ca-X
  1461     1460     1463     1464         9       180.000      15.16700    2     ; C-C-C-C, prebuilt X-ca-ca-X
  1461     1460     1463     1522         9       180.000      15.16700    2     ; C-C-C-H, prebuilt X-ca-ca-X
  1462     1461     1460     1463         9       180.000       4.18400    2     ; O-C-C-C, prebuilt X-c-ca-X
  1463     1460     1459     1466         9       180.000      15.16700    2     ; C-C-C-C, prebuilt X-ca-ca-X
  1463     1464     1465     1466         9       180.000      15.16700    2     ; C-C-C-C, prebuilt X-ca-ca-X
  1463     1464     1465     1523         9       180.000      15.16700    2     ; C-C-C-H, prebuilt X-ca-ca-X
  1463     1464     1467     1468         9       180.000       4.18400    2     ; C-C-C-O, prebuilt X-c-ca-X
  1463     1464     1467     1469         9       180.000       4.18400    2     ; C-C-C-N, prebuilt X-c-ca-X
  1464     1465     1466     1524         9       180.000      15.16700    2     ; C-C-C-H, prebuilt X-ca-ca-X
  1464     1467     1469     1470         9       180.000      10.46000    2     ; C-C-N-C, prebuilt X-c-n-X
  1464     1467     1469     1525         9       180.000      10.46000    2     ; C-C-N-H, prebuilt X-c-n-X
  1465     1464     1463     1522         9       180.000      15.16700    2     ; C-C-C-H, prebuilt X-ca-ca-X
  1465     1464     1467     1468         9       180.000       4.18400    2     ; C-C-C-O, prebuilt X-c-ca-X
  1465     1464     1467     1469         9       180.000       4.18400    2     ; C-C-C-N, prebuilt X-c-ca-X
  1466     1465     1464     1467         9       180.000      15.16700    2     ; C-C-C-C, prebuilt X-ca-ca-X
  1467     1464     1463     1522         9       180.000      15.16700    2     ; C-C-C-H, prebuilt X-ca-ca-X
  1467     1464     1465     1523         9       180.000      15.16700    2     ; C-C-C-H, prebuilt X-ca-ca-X
  1467     1469     1470     1471         9       180.000       1.88280    2     ; C-N-C-C, prebuilt X-ca-n-X
  1467     1469     1470     1475         9       180.000       1.88280    2     ; C-N-C-C, prebuilt X-ca-n-X
  1468     1467     1469     1470         9       180.000      10.46000    2     ; O-C-N-C, prebuilt X-c-n-X
  1468     1467     1469     1525         9       180.000      10.46000    2     ; O-C-N-H, prebuilt hn-n-c-o
  1468     1467     1469     1525         9         0.000       8.36800    1     ; O-C-N-H, prebuilt hn-n-c-o
  1469     1470     1471     1472         9       180.000      15.16700    2     ; N-C-C-C, prebuilt X-ca-ca-X
  1469     1470     1471     1526         9       180.000      15.16700    2     ; N-C-C-H, prebuilt X-ca-ca-X
  1469     1470     1475     1474         9       180.000      15.16700    2     ; N-C-C-C, prebuilt X-ca-ca-X
  1469     1470     1475     1529         9       180.000      15.16700    2     ; N-C-C-H, prebuilt X-ca-ca-X
  1470     1471     1472     1473         9       180.000      15.16700    2     ; C-C-C-C, prebuilt X-ca-ca-X
  1470     1471     1472     1527         9       180.000      15.16700    2     ; C-C-C-H, prebuilt X-ca-ca-X
  1470     1475     1474     1473         9       180.000      15.16700    2     ; C-C-C-C, prebuilt X-ca-ca-X
  1470     1475     1474     1528         9       180.000      15.16700    2     ; C-C-C-H, prebuilt X-ca-ca-X
  1471     1470     1469     1525         9       180.000       1.88280    2     ; C-C-N-H, prebuilt X-ca-n-X
  1471     1470     1475     1474         9       180.000      15.16700    2     ; C-C-C-C, prebuilt X-ca-ca-X
  1471     1470     1475     1529         9       180.000      15.16700    2     ; C-C-C-H, prebuilt X-ca-ca-X
  1471     1472     1473     1474         9       180.000      15.16700    2     ; C-C-C-C, prebuilt X-ca-ca-X
  1471     1472     1473     1476         9       180.000      15.16700    2     ; C-C-C-O, prebuilt X-ca-ca-X
  1472     1471     1470     1475         9       180.000      15.16700    2     ; C-C-C-C, prebuilt X-ca-ca-X
  1472     1473     1474     1475         9       180.000      15.16700    2     ; C-C-C-C, prebuilt X-ca-ca-X
  1472     1473     1474     1528         9       180.000      15.16700    2     ; C-C-C-H, prebuilt X-ca-ca-X
  1472     1473     1476     1477         9       180.000       3.76560    2     ; C-C-O-C, prebuilt X-ca-os-X
  1473     1472     1471     1526         9       180.000      15.16700    2     ; C-C-C-H, prebuilt X-ca-ca-X
  1473     1474     1475     1529         9       180.000      15.16700    2     ; C-C-C-H, prebuilt X-ca-ca-X
  1473     1476     1477     1478         9       180.000       3.76560    2     ; C-O-C-C, prebuilt X-ca-os-X
  1473     1476     1477     1482         9       180.000       3.76560    2     ; C-O-C-C, prebuilt X-ca-os-X
  1474     1473     1472     1527         9       180.000      15.16700    2     ; C-C-C-H, prebuilt X-ca-ca-X
  1474     1473     1476     1477         9       180.000       3.76560    2     ; C-C-O-C, prebuilt X-ca-os-X
  1475     1470     1469     1525         9       180.000       1.88280    2     ; C-C-N-H, prebuilt X-ca-n-X
  1475     1470     1471     1526         9       180.000      15.16700    2     ; C-C-C-H, prebuilt X-ca-ca-X
  1475     1474     1473     1476         9       180.000      15.16700    2     ; C-C-C-O, prebuilt X-ca-ca-X
  1476     1473     1472     1527         9       180.000      15.16700    2     ; O-C-C-H, prebuilt X-ca-ca-X
  1476     1473     1474     1528         9       180.000      15.16700    2     ; O-C-C-H, prebuilt X-ca-ca-X
  1476     1477     1478     1479         9       180.000      15.16700    2     ; O-C-C-C, prebuilt X-ca-ca-X
  1476     1477     1478     1530         9       180.000      15.16700    2     ; O-C-C-H, prebuilt X-ca-ca-X
  1476     1477     1482     1481         9       180.000      15.16700    2     ; O-C-C-C, prebuilt X-ca-ca-X
  1476     1477     1482     1483         9       180.000      15.16700    2     ; O-C-C-O, prebuilt X-ca-ca-X
  1477     1478     1479     1480         9       180.000      15.16700    2     ; C-C-C-C, prebuilt X-ca-ca-X
  1477     1478     1479     1531         9       180.000      15.16700    2     ; C-C-C-H, prebuilt X-ca-ca-X
  1477     1482     1481     1480         9       180.000      15.16700    2     ; C-C-C-C, prebuilt X-ca-ca-X
  1477     1482     1481     1533         9       180.000      15.16700    2     ; C-C-C-H, prebuilt X-ca-ca-X
  1477     1482     1483     1484         9       180.000       3.76560    2     ; C-C-O-C, prebuilt X-ca-os-X
  1478     1477     1482     1481         9       180.000      15.16700    2     ; C-C-C-C, prebuilt X-ca-ca-X
  1478     1477     1482     1483         9       180.000      15.16700    2     ; C-C-C-O, prebuilt X-ca-ca-X
  1478     1479     1480     1481         9       180.000      15.16700    2     ; C-C-C-C, prebuilt X-ca-ca-X
  1478     1479     1480     1532         9       180.000      15.16700    2     ; C-C-C-H, prebuilt X-ca-ca-X
  1479     1478     1477     1482         9       180.000      15.16700    2     ; C-C-C-C, prebuilt X-ca-ca-X
  1479     1480     1481     1482         9       180.000      15.16700    2     ; C-C-C-C, prebuilt X-ca-ca-X
  1479     1480     1481     1533         9       180.000      15.16700    2     ; C-C-C-H, prebuilt X-ca-ca-X
  1480     1479     1478     1530         9       180.000      15.16700    2     ; C-C-C-H, prebuilt X-ca-ca-X
  1480     1481     1482     1483         9       180.000      15.16700    2     ; C-C-C-O, prebuilt X-ca-ca-X
  1481     1480     1479     1531         9       180.000      15.16700    2     ; C-C-C-H, prebuilt X-ca-ca-X
  1481     1482     1483     1484         9       180.000       3.76560    2     ; C-C-O-C, prebuilt X-ca-os-X
  1482     1477     1478     1530         9       180.000      15.16700    2     ; C-C-C-H, prebuilt X-ca-ca-X
  1482     1481     1480     1532         9       180.000      15.16700    2     ; C-C-C-H, prebuilt X-ca-ca-X
  1482     1483     1484     1485         9       180.000       3.76560    2     ; C-O-C-C, prebuilt X-ca-os-X
  1482     1483     1484     1489         9       180.000       3.76560    2     ; C-O-C-C, prebuilt X-ca-os-X
  1483     1482     1481     1533         9       180.000      15.16700    2     ; O-C-C-H, prebuilt X-ca-ca-X
  1483     1484     1485     1486         9       180.000      15.16700    2     ; O-C-C-C, prebuilt X-ca-ca-X
  1483     1484     1485     1534         9       180.000      15.16700    2     ; O-C-C-H, prebuilt X-ca-ca-X
  1483     1484     1489     1488         9       180.000      15.16700    2     ; O-C-C-C, prebuilt X-ca-ca-X
  1483     1484     1489     1537         9       180.000      15.16700    2     ; O-C-C-H, prebuilt X-ca-ca-X
  1484     1485     1486     1487         9       180.000      15.16700    2     ; C-C-C-C, prebuilt X-ca-ca-X
  1484     1485     1486     1535         9       180.000      15.16700    2     ; C-C-C-H, prebuilt X-ca-ca-X
  1484     1489     1488     1487         9       180.000      15.16700    2     ; C-C-C-C, prebuilt X-ca-ca-X
  1484     1489     1488     1536         9       180.000      15.16700    2     ; C-C-C-H, prebuilt X-ca-ca-X
  1485     1484     1489     1488         9       180.000      15.16700    2     ; C-C-C-C, prebuilt X-ca-ca-X
  1485     1484     1489     1537         9       180.000      15.16700    2     ; C-C-C-H, prebuilt X-ca-ca-X
  1485     1486     1487     1488         9       180.000      15.16700    2     ; C-C-C-C, prebuilt X-ca-ca-X
  1485     1486     1487     1490         9       180.000      15.16700    2     ; C-C-C-N, prebuilt X-ca-ca-X
  1486     1485     1484     1489         9       180.000      15.16700    2     ; C-C-C-C, prebuilt X-ca-ca-X
  1486     1487     1488     1489         9       180.000      15.16700    2     ; C-C-C-C, prebuilt X-ca-ca-X
  1486     1487     1488     1536         9       180.000      15.16700    2     ; C-C-C-H, prebuilt X-ca-ca-X
  1486     1487     1490     1491         9       180.000       1.88280    2     ; C-C-N-C, prebuilt X-ca-n-X
  1486     1487     1490     1538         9       180.000       1.88280    2     ; C-C-N-H, prebuilt X-ca-n-X
  1487     1486     1485     1534         9       180.000      15.16700    2     ; C-C-C-H, prebuilt X-ca-ca-X
  1487     1488     1489     1537         9       180.000      15.16700    2     ; C-C-C-H, prebuilt X-ca-ca-X
  1487     1490     1491     1492         9       180.000      10.46000    2     ; C-N-C-O, prebuilt X-c-n-X
  1487     1490     1491     1493         9       180.000      10.46000    2     ; C-N-C-C, prebuilt X-c-n-X
  1488     1487     1486     1535         9       180.000      15.16700    2     ; C-C-C-H, prebuilt X-ca-ca-X
  1488     1487     1490     1491         9       180.000       1.88280    2     ; C-C-N-C, prebuilt X-ca-n-X
  1488     1487     1490     1538         9       180.000       1.88280    2     ; C-C-N-H, prebuilt X-ca-n-X
  1489     1484     1485     1534         9       180.000      15.16700    2     ; C-C-C-H, prebuilt X-ca-ca-X
  1489     1488     1487     1490         9       180.000      15.16700    2     ; C-C-C-N, prebuilt X-ca-ca-X
  1490     1487     1486     1535         9       180.000      15.16700    2     ; N-C-C-H, prebuilt X-ca-ca-X
  1490     1487     1488     1536         9       180.000      15.16700    2     ; N-C-C-H, prebuilt X-ca-ca-X
  1490     1491     1493     1494         9       180.000       4.18400    2     ; N-C-C-C, prebuilt X-c-ca-X
  1490     1491     1493     1498         9       180.000       4.18400    2     ; N-C-C-C, prebuilt X-c-ca-X
  1491     1493     1494     1495         9       180.000      15.16700    2     ; C-C-C-C, prebuilt X-ca-ca-X
  1491     1493     1494     1539         9       180.000      15.16700    2     ; C-C-C-H, prebuilt X-ca-ca-X
  1491     1493     1498     1497         9       180.000      15.16700    2     ; C-C-C-C, prebuilt X-ca-ca-X
  1491     1493     1498     1542         9       180.000      15.16700    2     ; C-C-C-H, prebuilt X-ca-ca-X
  1492     1491     1490     1538         9       180.000      10.46000    2     ; O-C-N-H, prebuilt hn-n-c-o
  1492     1491     1490     1538         9         0.000       8.36800    1     ; O-C-N-H, prebuilt hn-n-c-o
  1492     1491     1493     1494         9       180.000       4.18400    2     ; O-C-C-C, prebuilt X-c-ca-X
  1492     1491     1493     1498         9       180.000       4.18400    2     ; O-C-C-C, prebuilt X-c-ca-X
  1493     1491     1490     1538         9       180.000      10.46000    2     ; C-C-N-H, prebuilt X-c-n-X
  1493     1494     1495     1496         9       180.000      15.16700    2     ; C-C-C-C, prebuilt X-ca-ca-X
  1493     1494     1495     1540         9       180.000      15.16700    2     ; C-C-C-H, prebuilt X-ca-ca-X
  1493     1498     1497     1496         9       180.000      15.16700    2     ; C-C-C-C, prebuilt X-ca-ca-X
  1493     1498     1497     1541         9       180.000      15.16700    2     ; C-C-C-H, prebuilt X-ca-ca-X
  1494     1493     1498     1497         9       180.000      15.16700    2     ; C-C-C-C, prebuilt X-ca-ca-X
  1494     1493     1498     1542         9       180.000      15.16700    2     ; C-C-C-H, prebuilt X-ca-ca-X
  1494     1495     1496     1497         9       180.000      15.16700    2     ; C-C-C-C, prebuilt X-ca-ca-X
  1494     1495     1496     1499         9       180.000      15.16700    2     ; C-C-C-N, prebuilt X-ca-ca-X
  1495     1494     1493     1498         9       180.000      15.16700    2     ; C-C-C-C, prebuilt X-ca-ca-X
  1495     1496     1497     1498         9       180.000      15.16700    2     ; C-C-C-C, prebuilt X-ca-ca-X
  1495     1496     1497     1541         9       180.000      15.16700    2     ; C-C-C-H, prebuilt X-ca-ca-X
  1495     1496     1499     1500         9       180.000       1.88280    2     ; C-C-N-C, prebuilt X-ca-n-X
  1495     1496     1499     1504         9       180.000       1.88280    2     ; C-C-N-C, prebuilt X-ca-n-X
  1496     1495     1494     1539         9       180.000      15.16700    2     ; C-C-C-H, prebuilt X-ca-ca-X
  1496     1497     1498     1542         9       180.000      15.16700    2     ; C-C-C-H, prebuilt X-ca-ca-X
  1496     1499     1500     1501         9       180.000      10.46000    2     ; C-N-C-O, prebuilt X-c-n-X
  1496     1499     1500     1502         9       180.000      10.46000    2     ; C-N-C-C, prebuilt X-c-n-X
  1496     1499     1504     1503         9       180.000      10.46000    2     ; C-N-C-C, prebuilt X-c-n-X
  1496     1499     1504     1505         9       180.000      10.46000    2     ; C-N-C-O, prebuilt X-c-n-X
  1497     1496     1495     1540         9       180.000      15.16700    2     ; C-C-C-H, prebuilt X-ca-ca-X
  1497     1496     1499     1500         9       180.000       1.88280    2     ; C-C-N-C, prebuilt X-ca-n-X
  1497     1496     1499     1504         9       180.000       1.88280    2     ; C-C-N-C, prebuilt X-ca-n-X
  1498     1493     1494     1539         9       180.000      15.16700    2     ; C-C-C-H, prebuilt X-ca-ca-X
  1498     1497     1496     1499         9       180.000      15.16700    2     ; C-C-C-N, prebuilt X-ca-ca-X
  1499     1496     1495     1540         9       180.000      15.16700    2     ; N-C-C-H, prebuilt X-ca-ca-X
  1499     1496     1497     1541         9       180.000      15.16700    2     ; N-C-C-H, prebuilt X-ca-ca-X
  1499     1500     1502     1503         9       180.000       4.18400    2     ; N-C-C-C, prebuilt X-c-ca-X
  1499     1500     1502     1509         9       180.000       4.18400    2     ; N-C-C-C, prebuilt X-c-ca-X
  1499     1504     1503     1502         9       180.000       4.18400    2     ; N-C-C-C, prebuilt X-c-ca-X
  1499     1504     1503     1506         9       180.000       4.18400    2     ; N-C-C-C, prebuilt X-c-ca-X
  1500     1499     1504     1503         9       180.000      10.46000    2     ; C-N-C-C, prebuilt X-c-n-X
  1500     1499     1504     1505         9       180.000      10.46000    2     ; C-N-C-O, prebuilt X-c-n-X
  1500     1502     1503     1504         9       180.000      15.16700    2     ; C-C-C-C, prebuilt X-ca-ca-X
  1500     1502     1503     1506         9       180.000      15.16700    2     ; C-C-C-C, prebuilt X-ca-ca-X
  1500     1502     1509     1508         9       180.000      15.16700    2     ; C-C-C-C, prebuilt X-ca-ca-X
  1500     1502     1509     1545         9       180.000      15.16700    2     ; C-C-C-H, prebuilt X-ca-ca-X
  1501     1500     1499     1504         9       180.000      10.46000    2     ; O-C-N-C, prebuilt X-c-n-X
  1501     1500     1502     1503         9       180.000       4.18400    2     ; O-C-C-C, prebuilt X-c-ca-X
  1501     1500     1502     1509         9       180.000       4.18400    2     ; O-C-C-C, prebuilt X-c-ca-X
  1502     1500     1499     1504         9       180.000      10.46000    2     ; C-C-N-C, prebuilt X-c-n-X
  1502     1503     1504     1505         9       180.000       4.18400    2     ; C-C-C-O, prebuilt X-c-ca-X
  1502     1503     1506     1507         9       180.000      15.16700    2     ; C-C-C-C, prebuilt X-ca-ca-X
  1502     1503     1506     1543         9       180.000      15.16700    2     ; C-C-C-H, prebuilt X-ca-ca-X
  1502     1509     1508     1507         9       180.000      15.16700    2     ; C-C-C-C, prebuilt X-ca-ca-X
  1502     1509     1508     1544         9       180.000      15.16700    2     ; C-C-C-H, prebuilt X-ca-ca-X
  1503     1502     1509     1508         9       180.000      15.16700    2     ; C-C-C-C, prebuilt X-ca-ca-X
  1503     1502     1509     1545         9       180.000      15.16700    2     ; C-C-C-H, prebuilt X-ca-ca-X
  1503     1506     1507     1508         9       180.000      15.16700    2     ; C-C-C-C, prebuilt X-ca-cp-X
  1503     1506     1507     1549         9       180.000      15.16700    2     ; C-C-C-C, prebuilt X-ca-cp-X
  1504     1503     1502     1509         9       180.000      15.16700    2     ; C-C-C-C, prebuilt X-ca-ca-X
  1504     1503     1506     1507         9       180.000      15.16700    2     ; C-C-C-C, prebuilt X-ca-ca-X
  1504     1503     1506     1543         9       180.000      15.16700    2     ; C-C-C-H, prebuilt X-ca-ca-X
  1505     1504     1503     1506         9       180.000       4.18400    2     ; O-C-C-C, prebuilt X-c-ca-X
  1506     1503     1502     1509         9       180.000      15.16700    2     ; C-C-C-C, prebuilt X-ca-ca-X
  1506     1507     1508     1509         9       180.000      15.16700    2     ; C-C-C-C, prebuilt X-ca-cp-X
  1506     1507     1508     1544         9       180.000      15.16700    2     ; C-C-C-H, prebuilt X-ca-cp-X
  1506     1507     1549     1550         9       180.000       4.18400    2     ; C-C-C-C, prebuilt X-cp-cp-X
  1506     1507     1549     1554         9       180.000       4.18400    2     ; C-C-C-C, prebuilt X-cp-cp-X
  1507     1508     1509     1545         9       180.000      15.16700    2     ; C-C-C-H, prebuilt X-ca-ca-X
  1507     1549     1550     1551         9       180.000      15.16700    2     ; C-C-C-C, prebuilt X-ca-cp-X
  1507     1549     1550     1630         9       180.000      15.16700    2     ; C-C-C-H, prebuilt X-ca-cp-X
  1507     1549     1554     1553         9       180.000      15.16700    2     ; C-C-C-C, prebuilt X-ca-cp-X
  1507     1549     1554     1632         9       180.000      15.16700    2     ; C-C-C-H, prebuilt X-ca-cp-X
  1508     1507     1506     1543         9       180.000      15.16700    2     ; C-C-C-H, prebuilt X-ca-cp-X
  1508     1507     1549     1550         9       180.000       4.18400    2     ; C-C-C-C, prebuilt X-cp-cp-X
  1508     1507     1549     1554         9       180.000       4.18400    2     ; C-C-C-C, prebuilt X-cp-cp-X
  1509     1508     1507     1549         9       180.000      15.16700    2     ; C-C-C-C, prebuilt X-ca-cp-X
  1510     1453     1452     1520         9       180.000      15.16700    2     ; C-C-C-H, prebuilt X-ca-ca-X
  1510     1453     1454     1521         9       180.000      15.16700    2     ; C-C-C-H, prebuilt X-ca-ca-X
  1511     1431     1432     1512         9       180.000      15.16700    2     ; H-C-C-H, prebuilt X-ca-ca-X
  1514     1442     1443     1515         9       180.000      15.16700    2     ; H-C-C-H, prebuilt X-ca-ca-X
  1516     1445     1446     1517         9       180.000      15.16700    2     ; H-C-C-H, prebuilt X-ca-ca-X
  1519     1451     1452     1520         9       180.000      15.16700    2     ; H-C-C-H, prebuilt X-ca-ca-X
  1523     1465     1466     1524         9       180.000      15.16700    2     ; H-C-C-H, prebuilt X-ca-ca-X
  1526     1471     1472     1527         9       180.000      15.16700    2     ; H-C-C-H, prebuilt X-ca-ca-X
  1528     1474     1475     1529         9       180.000      15.16700    2     ; H-C-C-H, prebuilt X-ca-ca-X
  1530     1478     1479     1531         9       180.000      15.16700    2     ; H-C-C-H, prebuilt X-ca-ca-X
  1531     1479     1480     1532         9       180.000      15.16700    2     ; H-C-C-H, prebuilt X-ca-ca-X
  1532     1480     1481     1533         9       180.000      15.16700    2     ; H-C-C-H, prebuilt X-ca-ca-X
  1534     1485     1486     1535         9       180.000      15.16700    2     ; H-C-C-H, prebuilt X-ca-ca-X
  1536     1488     1489     1537         9       180.000      15.16700    2     ; H-C-C-H, prebuilt X-ca-ca-X
  1539     1494     1495     1540         9       180.000      15.16700    2     ; H-C-C-H, prebuilt X-ca-ca-X
  1541     1497     1498     1542         9       180.000      15.16700    2     ; H-C-C-H, prebuilt X-ca-ca-X
  1543     1506     1507     1549         9       180.000      15.16700    2     ; H-C-C-C, prebuilt X-ca-cp-X
  1544     1508     1507     1549         9       180.000      15.16700    2     ; H-C-C-C, prebuilt X-ca-cp-X
  1544     1508     1509     1545         9       180.000      15.16700    2     ; H-C-C-H, prebuilt X-ca-ca-X
  1549     1550     1551     1552         9       180.000      15.16700    2     ; C-C-C-C, prebuilt X-ca-ca-X
  1549     1550     1551     1631         9       180.000      15.16700    2     ; C-C-C-H, prebuilt X-ca-ca-X
  1549     1554     1553     1552         9       180.000      15.16700    2     ; C-C-C-C, prebuilt X-ca-ca-X
  1549     1554     1553     1555         9       180.000      15.16700    2     ; C-C-C-C, prebuilt X-ca-ca-X
  1550     1549     1554     1553         9       180.000      15.16700    2     ; C-C-C-C, prebuilt X-ca-cp-X
  1550     1549     1554     1632         9       180.000      15.16700    2     ; C-C-C-H, prebuilt X-ca-cp-X
  1550     1551     1552     1553         9       180.000      15.16700    2     ; C-C-C-C, prebuilt X-ca-ca-X
  1550     1551     1552     1558         9       180.000      15.16700    2     ; C-C-C-C, prebuilt X-ca-ca-X
  1551     1550     1549     1554         9       180.000      15.16700    2     ; C-C-C-C, prebuilt X-ca-cp-X
  1551     1552     1553     1554         9       180.000      15.16700    2     ; C-C-C-C, prebuilt X-ca-ca-X
  1551     1552     1553     1555         9       180.000      15.16700    2     ; C-C-C-C, prebuilt X-ca-ca-X
  1551     1552     1558     1557         9       180.000       4.18400    2     ; C-C-C-N, prebuilt X-c-ca-X
  1551     1552     1558     1559         9       180.000       4.18400    2     ; C-C-C-O, prebuilt X-c-ca-X
  1552     1551     1550     1630         9       180.000      15.16700    2     ; C-C-C-H, prebuilt X-ca-ca-X
  1552     1553     1554     1632         9       180.000      15.16700    2     ; C-C-C-H, prebuilt X-ca-ca-X
  1552     1553     1555     1556         9       180.000       4.18400    2     ; C-C-C-O, prebuilt X-c-ca-X
  1552     1553     1555     1557         9       180.000       4.18400    2     ; C-C-C-N, prebuilt X-c-ca-X
  1552     1558     1557     1555         9       180.000      10.46000    2     ; C-C-N-C, prebuilt X-c-n-X
  1552     1558     1557     1560         9       180.000      10.46000    2     ; C-C-N-C, prebuilt X-c-n-X
  1553     1552     1551     1631         9       180.000      15.16700    2     ; C-C-C-H, prebuilt X-ca-ca-X
  1553     1552     1558     1557         9       180.000       4.18400    2     ; C-C-C-N, prebuilt X-c-ca-X
  1553     1552     1558     1559         9       180.000       4.18400    2     ; C-C-C-O, prebuilt X-c-ca-X
  1553     1555     1557     1558         9       180.000      10.46000    2     ; C-C-N-C, prebuilt X-c-n-X
  1553     1555     1557     1560         9       180.000      10.46000    2     ; C-C-N-C, prebuilt X-c-n-X
  1554     1549     1550     1630         9       180.000      15.16700    2     ; C-C-C-H, prebuilt X-ca-cp-X
  1554     1553     1552     1558         9       180.000      15.16700    2     ; C-C-C-C, prebuilt X-ca-ca-X
  1554     1553     1555     1556         9       180.000       4.18400    2     ; C-C-C-O, prebuilt X-c-ca-X
  1554     1553     1555     1557         9       180.000       4.18400    2     ; C-C-C-N, prebuilt X-c-ca-X
  1555     1553     1552     1558         9       180.000      15.16700    2     ; C-C-C-C, prebuilt X-ca-ca-X
  1555     1553     1554     1632         9       180.000      15.16700    2     ; C-C-C-H, prebuilt X-ca-ca-X
  1555     1557     1558     1559         9       180.000      10.46000    2     ; C-N-C-O, prebuilt X-c-n-X
  1555     1557     1560     1561         9       180.000       1.88280    2     ; C-N-C-C, prebuilt X-ca-n-X
  1555     1557     1560     1565         9       180.000       1.88280    2     ; C-N-C-C, prebuilt X-ca-n-X
  1556     1555     1557     1558         9       180.000      10.46000    2     ; O-C-N-C, prebuilt X-c-n-X
  1556     1555     1557     1560         9       180.000      10.46000    2     ; O-C-N-C, prebuilt X-c-n-X
  1557     1560     1561     1562         9       180.000      15.16700    2     ; N-C-C-C, prebuilt X-ca-ca-X
  1557     1560     1561     1633         9       180.000      15.16700    2     ; N-C-C-H, prebuilt X-ca-ca-X
  1557     1560     1565     1564         9       180.000      15.16700    2     ; N-C-C-C, prebuilt X-ca-ca-X
  1557     1560     1565     1636         9       180.000      15.16700    2     ; N-C-C-H, prebuilt X-ca-ca-X
  1558     1552     1551     1631         9       180.000      15.16700    2     ; C-C-C-H, prebuilt X-ca-ca-X
  1558     1557     1560     1561         9       180.000       1.88280    2     ; C-N-C-C, prebuilt X-ca-n-X
  1558     1557     1560     1565         9       180.000       1.88280    2     ; C-N-C-C, prebuilt X-ca-n-X
  1559     1558     1557     1560         9       180.000      10.46000    2     ; O-C-N-C, prebuilt X-c-n-X
  1560     1561     1562     1563         9       180.000      15.16700    2     ; C-C-C-C, prebuilt X-ca-ca-X
  1560     1561     1562     1634         9       180.000      15.16700    2     ; C-C-C-H, prebuilt X-ca-ca-X
  1560     1565     1564     1563         9       180.000      15.16700    2     ; C-C-C-C, prebuilt X-ca-ca-X
  1560     1565     1564     1635         9       180.000      15.16700    2     ; C-C-C-H, prebuilt X-ca-ca-X
  1561     1560     1565     1564         9       180.000      15.16700    2     ; C-C-C-C, prebuilt X-ca-ca-X
  1561     1560     1565     1636         9       180.000      15.16700    2     ; C-C-C-H, prebuilt X-ca-ca-X
  1561     1562     1563     1564         9       180.000      15.16700    2     ; C-C-C-C, prebuilt X-ca-ca-X
  1561     1562     1563     1566         9       180.000      15.16700    2     ; C-C-C-N, prebuilt X-ca-ca-X
  1562     1561     1560     1565         9       180.000      15.16700    2     ; C-C-C-C, prebuilt X-ca-ca-X
  1562     1563     1564     1565         9       180.000      15.16700    2     ; C-C-C-C, prebuilt X-ca-ca-X
  1562     1563     1564     1635         9       180.000      15.16700    2     ; C-C-C-H, prebuilt X-ca-ca-X
  1562     1563     1566     1567         9       180.000       1.88280    2     ; C-C-N-C, prebuilt X-ca-n-X
  1562     1563     1566     1637         9       180.000       1.88280    2     ; C-C-N-H, prebuilt X-ca-n-X
  1563     1562     1561     1633         9       180.000      15.16700    2     ; C-C-C-H, prebuilt X-ca-ca-X
  1563     1564     1565     1636         9       180.000      15.16700    2     ; C-C-C-H, prebuilt X-ca-ca-X
  1563     1566     1567     1568         9       180.000      10.46000    2     ; C-N-C-O, prebuilt X-c-n-X
  1563     1566     1567     1569         9       180.000      10.46000    2     ; C-N-C-C, prebuilt X-c-n-X
  1564     1563     1562     1634         9       180.000      15.16700    2     ; C-C-C-H, prebuilt X-ca-ca-X
  1564     1563     1566     1567         9       180.000       1.88280    2     ; C-C-N-C, prebuilt X-ca-n-X
  1564     1563     1566     1637         9       180.000       1.88280    2     ; C-C-N-H, prebuilt X-ca-n-X
  1565     1560     1561     1633         9       180.000      15.16700    2     ; C-C-C-H, prebuilt X-ca-ca-X
  1565     1564     1563     1566         9       180.000      15.16700    2     ; C-C-C-N, prebuilt X-ca-ca-X
  1566     1563     1562     1634         9       180.000      15.16700    2     ; N-C-C-H, prebuilt X-ca-ca-X
  1566     1563     1564     1635         9       180.000      15.16700    2     ; N-C-C-H, prebuilt X-ca-ca-X
  1566     1567     1569     1570         9       180.000       4.18400    2     ; N-C-C-C, prebuilt X-c-ca-X
  1566     1567     1569     1574         9       180.000       4.18400    2     ; N-C-C-C, prebuilt X-c-ca-X
  1567     1569     1570     1571         9       180.000      15.16700    2     ; C-C-C-C, prebuilt X-ca-ca-X
  1567     1569     1570     1638         9       180.000      15.16700    2     ; C-C-C-H, prebuilt X-ca-ca-X
  1567     1569     1574     1573         9       180.000      15.16700    2     ; C-C-C-C, prebuilt X-ca-ca-X
  1567     1569     1574     1575         9       180.000      15.16700    2     ; C-C-C-N, prebuilt X-ca-ca-X
  1568     1567     1566     1637         9       180.000      10.46000    2     ; O-C-N-H, prebuilt hn-n-c-o
  1568     1567     1566     1637         9         0.000       8.36800    1     ; O-C-N-H, prebuilt hn-n-c-o
  1568     1567     1569     1570         9       180.000       4.18400    2     ; O-C-C-C, prebuilt X-c-ca-X
  1568     1567     1569     1574         9       180.000       4.18400    2     ; O-C-C-C, prebuilt X-c-ca-X
  1569     1567     1566     1637         9       180.000      10.46000    2     ; C-C-N-H, prebuilt X-c-n-X
  1569     1570     1571     1572         9       180.000      15.16700    2     ; C-C-C-C, prebuilt X-ca-ca-X
  1569     1570     1571     1639         9       180.000      15.16700    2     ; C-C-C-H, prebuilt X-ca-ca-X
  1569     1574     1573     1572         9       180.000      15.16700    2     ; C-C-C-C, prebuilt X-ca-ca-X
  1569     1574     1573     1640         9       180.000      15.16700    2     ; C-C-C-H, prebuilt X-ca-ca-X
  1569     1574     1575     1576         9       180.000       1.88280    2     ; C-C-N-C, prebuilt X-ca-n-X
  1569     1574     1575     1580         9       180.000       1.88280    2     ; C-C-N-C, prebuilt X-ca-n-X
  1570     1569     1574     1573         9       180.000      15.16700    2     ; C-C-C-C, prebuilt X-ca-ca-X
  1570     1569     1574     1575         9       180.000      15.16700    2     ; C-C-C-N, prebuilt X-ca-ca-X
  1570     1571     1572     1573         9       180.000      15.16700    2     ; C-C-C-C, prebuilt X-ca-ca-X
  1570     1571     1572     1629         9       180.000      15.16700    2     ; C-C-C-C, prebuilt X-ca-ca-X
  1571     1570     1569     1574         9       180.000      15.16700    2     ; C-C-C-C, prebuilt X-ca-ca-X
  1571     1572     1573     1574         9       180.000      15.16700    2     ; C-C-C-C, prebuilt X-ca-ca-X
  1571     1572     1573     1640         9       180.000      15.16700    2     ; C-C-C-H, prebuilt X-ca-ca-X
  1571     1572     1629     1665         9         0.000       0.00000    2     ; C-C-C-H, prebuilt X-c3-ca-X
  1571     1572     1629     1666         9         0.000       0.00000    2     ; C-C-C-H, prebuilt X-c3-ca-X
  1571     1572     1629     1667         9         0.000       0.00000    2     ; C-C-C-H, prebuilt X-c3-ca-X
  1572     1571     1570     1638         9       180.000      15.16700    2     ; C-C-C-H, prebuilt X-ca-ca-X
  1572     1573     1574     1575         9       180.000      15.16700    2     ; C-C-C-N, prebuilt X-ca-ca-X
  1573     1572     1571     1639         9       180.000      15.16700    2     ; C-C-C-H, prebuilt X-ca-ca-X
  1573     1572     1629     1665         9         0.000       0.00000    2     ; C-C-C-H, prebuilt X-c3-ca-X
  1573     1572     1629     1666         9         0.000       0.00000    2     ; C-C-C-H, prebuilt X-c3-ca-X
  1573     1572     1629     1667         9         0.000       0.00000    2     ; C-C-C-H, prebuilt X-c3-ca-X
  1573     1574     1575     1576         9       180.000       1.88280    2     ; C-C-N-C, prebuilt X-ca-n-X
  1573     1574     1575     1580         9       180.000       1.88280    2     ; C-C-N-C, prebuilt X-ca-n-X
  1574     1569     1570     1638         9       180.000      15.16700    2     ; C-C-C-H, prebuilt X-ca-ca-X
  1574     1573     1572     1629         9       180.000      15.16700    2     ; C-C-C-C, prebuilt X-ca-ca-X
  1574     1575     1576     1577         9       180.000      10.46000    2     ; C-N-C-O, prebuilt X-c-n-X
  1574     1575     1576     1578         9       180.000      10.46000    2     ; C-N-C-C, prebuilt X-c-n-X
  1574     1575     1580     1579         9       180.000      10.46000    2     ; C-N-C-C, prebuilt X-c-n-X
  1574     1575     1580     1581         9       180.000      10.46000    2     ; C-N-C-O, prebuilt X-c-n-X
  1575     1574     1573     1640         9       180.000      15.16700    2     ; N-C-C-H, prebuilt X-ca-ca-X
  1575     1576     1578     1579         9       180.000       4.18400    2     ; N-C-C-C, prebuilt X-c-ca-X
  1575     1576     1578     1585         9       180.000       4.18400    2     ; N-C-C-C, prebuilt X-c-ca-X
  1575     1580     1579     1578         9       180.000       4.18400    2     ; N-C-C-C, prebuilt X-c-ca-X
  1575     1580     1579     1582         9       180.000       4.18400    2     ; N-C-C-C, prebuilt X-c-ca-X
  1576     1575     1580     1579         9       180.000      10.46000    2     ; C-N-C-C, prebuilt X-c-n-X
  1576     1575     1580     1581         9       180.000      10.46000    2     ; C-N-C-O, prebuilt X-c-n-X
  1576     1578     1579     1580         9       180.000      15.16700    2     ; C-C-C-C, prebuilt X-ca-ca-X
  1576     1578     1579     1582         9       180.000      15.16700    2     ; C-C-C-C, prebuilt X-ca-ca-X
  1576     1578     1585     1584         9       180.000      15.16700    2     ; C-C-C-C, prebuilt X-ca-ca-X
  1576     1578     1585     1643         9       180.000      15.16700    2     ; C-C-C-H, prebuilt X-ca-ca-X
  1577     1576     1575     1580         9       180.000      10.46000    2     ; O-C-N-C, prebuilt X-c-n-X
  1577     1576     1578     1579         9       180.000       4.18400    2     ; O-C-C-C, prebuilt X-c-ca-X
  1577     1576     1578     1585         9       180.000       4.18400    2     ; O-C-C-C, prebuilt X-c-ca-X
  1578     1576     1575     1580         9       180.000      10.46000    2     ; C-C-N-C, prebuilt X-c-n-X
  1578     1579     1580     1581         9       180.000       4.18400    2     ; C-C-C-O, prebuilt X-c-ca-X
  1578     1579     1582     1583         9       180.000      15.16700    2     ; C-C-C-C, prebuilt X-ca-ca-X
  1578     1579     1582     1641         9       180.000      15.16700    2     ; C-C-C-H, prebuilt X-ca-ca-X
  1578     1585     1584     1583         9       180.000      15.16700    2     ; C-C-C-C, prebuilt X-ca-ca-X
  1578     1585     1584     1642         9       180.000      15.16700    2     ; C-C-C-H, prebuilt X-ca-ca-X
  1579     1578     1585     1584         9       180.000      15.16700    2     ; C-C-C-C, prebuilt X-ca-ca-X
  1579     1578     1585     1643         9       180.000      15.16700    2     ; C-C-C-H, prebuilt X-ca-ca-X
  1579     1582     1583     1584         9       180.000      15.16700    2     ; C-C-C-C, prebuilt X-ca-ca-X
  1579     1582     1583     1586         9       180.000      15.16700    2     ; C-C-C-C, prebuilt X-ca-ca-X
  1580     1579     1578     1585         9       180.000      15.16700    2     ; C-C-C-C, prebuilt X-ca-ca-X
  1580     1579     1582     1583         9       180.000      15.16700    2     ; C-C-C-C, prebuilt X-ca-ca-X
  1580     1579     1582     1641         9       180.000      15.16700    2     ; C-C-C-H, prebuilt X-ca-ca-X
  1581     1580     1579     1582         9       180.000       4.18400    2     ; O-C-C-C, prebuilt X-c-ca-X
  1582     1579     1578     1585         9       180.000      15.16700    2     ; C-C-C-C, prebuilt X-ca-ca-X
  1582     1583     1584     1585         9       180.000      15.16700    2     ; C-C-C-C, prebuilt X-ca-ca-X
  1582     1583     1584     1642         9       180.000      15.16700    2     ; C-C-C-H, prebuilt X-ca-ca-X
  1582     1583     1586     1587         9       180.000       4.18400    2     ; C-C-C-O, prebuilt X-c-ca-X
  1582     1583     1586     1588         9       180.000       4.18400    2     ; C-C-C-N, prebuilt X-c-ca-X
  1583     1584     1585     1643         9       180.000      15.16700    2     ; C-C-C-H, prebuilt X-ca-ca-X
  1583     1586     1588     1589         9       180.000      10.46000    2     ; C-C-N-C, prebuilt X-c-n-X
  1583     1586     1588     1644         9       180.000      10.46000    2     ; C-C-N-H, prebuilt X-c-n-X
  1584     1583     1582     1641         9       180.000      15.16700    2     ; C-C-C-H, prebuilt X-ca-ca-X
  1584     1583     1586     1587         9       180.000       4.18400    2     ; C-C-C-O, prebuilt X-c-ca-X
  1584     1583     1586     1588         9       180.000       4.18400    2     ; C-C-C-N, prebuilt X-c-ca-X
  1585     1584     1583     1586         9       180.000      15.16700    2     ; C-C-C-C, prebuilt X-ca-ca-X
  1586     1583     1582     1641         9       180.000      15.16700    2     ; C-C-C-H, prebuilt X-ca-ca-X
  1586     1583     1584     1642         9       180.000      15.16700    2     ; C-C-C-H, prebuilt X-ca-ca-X
  1586     1588     1589     1590         9       180.000       1.88280    2     ; C-N-C-C, prebuilt X-ca-n-X
  1586     1588     1589     1594         9       180.000       1.88280    2     ; C-N-C-C, prebuilt X-ca-n-X
  1587     1586     1588     1589         9       180.000      10.46000    2     ; O-C-N-C, prebuilt X-c-n-X
  1587     1586     1588     1644         9       180.000      10.46000    2     ; O-C-N-H, prebuilt hn-n-c-o
  1587     1586     1588     1644         9         0.000       8.36800    1     ; O-C-N-H, prebuilt hn-n-c-o
  1588     1589     1590     1591         9       180.000      15.16700    2     ; N-C-C-C, prebuilt X-ca-ca-X
  1588     1589     1590     1645         9       180.000      15.16700    2     ; N-C-C-H, prebuilt X-ca-ca-X
  1588     1589     1594     1593         9       180.000      15.16700    2     ; N-C-C-C, prebuilt X-ca-ca-X
  1588     1589     1594     1648         9       180.000      15.16700    2     ; N-C-C-H, prebuilt X-ca-ca-X
  1589     1590     1591     1592         9       180.000      15.16700    2     ; C-C-C-C, prebuilt X-ca-ca-X
  1589     1590     1591     1646         9       180.000      15.16700    2     ; C-C-C-H, prebuilt X-ca-ca-X
  1589     1594     1593     1592         9       180.000      15.16700    2     ; C-C-C-C, prebuilt X-ca-ca-X
  1589     1594     1593     1647         9       180.000      15.16700    2     ; C-C-C-H, prebuilt X-ca-ca-X
  1590     1589     1588     1644         9       180.000       1.88280    2     ; C-C-N-H, prebuilt X-ca-n-X
  1590     1589     1594     1593         9       180.000      15.16700    2     ; C-C-C-C, prebuilt X-ca-ca-X
  1590     1589     1594     1648         9       180.000      15.16700    2     ; C-C-C-H, prebuilt X-ca-ca-X
  1590     1591     1592     1593         9       180.000      15.16700    2     ; C-C-C-C, prebuilt X-ca-ca-X
  1590     1591     1592     1595         9       180.000      15.16700    2     ; C-C-C-O, prebuilt X-ca-ca-X
  1591     1590     1589     1594         9       180.000      15.16700    2     ; C-C-C-C, prebuilt X-ca-ca-X
  1591     1592     1593     1594         9       180.000      15.16700    2     ; C-C-C-C, prebuilt X-ca-ca-X
  1591     1592     1593     1647         9       180.000      15.16700    2     ; C-C-C-H, prebuilt X-ca-ca-X
  1591     1592     1595     1596         9       180.000       3.76560    2     ; C-C-O-C, prebuilt X-ca-os-X
  1592     1591     1590     1645         9       180.000      15.16700    2     ; C-C-C-H, prebuilt X-ca-ca-X
  1592     1593     1594     1648         9       180.000      15.16700    2     ; C-C-C-H, prebuilt X-ca-ca-X
  1592     1595     1596     1597         9       180.000       3.76560    2     ; C-O-C-C, prebuilt X-ca-os-X
  1592     1595     1596     1601         9       180.000       3.76560    2     ; C-O-C-C, prebuilt X-ca-os-X
  1593     1592     1591     1646         9       180.000      15.16700    2     ; C-C-C-H, prebuilt X-ca-ca-X
  1593     1592     1595     1596         9       180.000       3.76560    2     ; C-C-O-C, prebuilt X-ca-os-X
  1594     1589     1588     1644         9       180.000       1.88280    2     ; C-C-N-H, prebuilt X-ca-n-X
  1594     1589     1590     1645         9       180.000      15.16700    2     ; C-C-C-H, prebuilt X-ca-ca-X
  1594     1593     1592     1595         9       180.000      15.16700    2     ; C-C-C-O, prebuilt X-ca-ca-X
  1595     1592     1591     1646         9       180.000      15.16700    2     ; O-C-C-H, prebuilt X-ca-ca-X
  1595     1592     1593     1647         9       180.000      15.16700    2     ; O-C-C-H, prebuilt X-ca-ca-X
  1595     1596     1597     1598         9       180.000      15.16700    2     ; O-C-C-C, prebuilt X-ca-ca-X
  1595     1596     1597     1649         9       180.000      15.16700    2     ; O-C-C-H, prebuilt X-ca-ca-X
  1595     1596     1601     1600         9       180.000      15.16700    2     ; O-C-C-C, prebuilt X-ca-ca-X
  1595     1596     1601     1602         9       180.000      15.16700    2     ; O-C-C-O, prebuilt X-ca-ca-X
  1596     1597     1598     1599         9       180.000      15.16700    2     ; C-C-C-C, prebuilt X-ca-ca-X
  1596     1597     1598     1650         9       180.000      15.16700    2     ; C-C-C-H, prebuilt X-ca-ca-X
  1596     1601     1600     1599         9       180.000      15.16700    2     ; C-C-C-C, prebuilt X-ca-ca-X
  1596     1601     1600     1652         9       180.000      15.16700    2     ; C-C-C-H, prebuilt X-ca-ca-X
  1596     1601     1602     1603         9       180.000       3.76560    2     ; C-C-O-C, prebuilt X-ca-os-X
  1597     1596     1601     1600         9       180.000      15.16700    2     ; C-C-C-C, prebuilt X-ca-ca-X
  1597     1596     1601     1602         9       180.000      15.16700    2     ; C-C-C-O, prebuilt X-ca-ca-X
  1597     1598     1599     1600         9       180.000      15.16700    2     ; C-C-C-C, prebuilt X-ca-ca-X
  1597     1598     1599     1651         9       180.000      15.16700    2     ; C-C-C-H, prebuilt X-ca-ca-X
  1598     1597     1596     1601         9       180.000      15.16700    2     ; C-C-C-C, prebuilt X-ca-ca-X
  1598     1599     1600     1601         9       180.000      15.16700    2     ; C-C-C-C, prebuilt X-ca-ca-X
  1598     1599     1600     1652         9       180.000      15.16700    2     ; C-C-C-H, prebuilt X-ca-ca-X
  1599     1598     1597     1649         9       180.000      15.16700    2     ; C-C-C-H, prebuilt X-ca-ca-X
  1599     1600     1601     1602         9       180.000      15.16700    2     ; C-C-C-O, prebuilt X-ca-ca-X
  1600     1599     1598     1650         9       180.000      15.16700    2     ; C-C-C-H, prebuilt X-ca-ca-X
  1600     1601     1602     1603         9       180.000       3.76560    2     ; C-C-O-C, prebuilt X-ca-os-X
  1601     1596     1597     1649         9       180.000      15.16700    2     ; C-C-C-H, prebuilt X-ca-ca-X
  1601     1600     1599     1651         9       180.000      15.16700    2     ; C-C-C-H, prebuilt X-ca-ca-X
  1601     1602     1603     1604         9       180.000       3.76560    2     ; C-O-C-C, prebuilt X-ca-os-X
  1601     1602     1603     1608         9       180.000       3.76560    2     ; C-O-C-C, prebuilt X-ca-os-X
  1602     1601     1600     1652         9       180.000      15.16700    2     ; O-C-C-H, prebuilt X-ca-ca-X
  1602     1603     1604     1605         9       180.000      15.16700    2     ; O-C-C-C, prebuilt X-ca-ca-X
  1602     1603     1604     1653         9       180.000      15.16700    2     ; O-C-C-H, prebuilt X-ca-ca-X
  1602     1603     1608     1607         9       180.000      15.16700    2     ; O-C-C-C, prebuilt X-ca-ca-X
  1602     1603     1608     1656         9       180.000      15.16700    2     ; O-C-C-H, prebuilt X-ca-ca-X
  1603     1604     1605     1606         9       180.000      15.16700    2     ; C-C-C-C, prebuilt X-ca-ca-X
  1603     1604     1605     1654         9       180.000      15.16700    2     ; C-C-C-H, prebuilt X-ca-ca-X
  1603     1608     1607     1606         9       180.000      15.16700    2     ; C-C-C-C, prebuilt X-ca-ca-X
  1603     1608     1607     1655         9       180.000      15.16700    2     ; C-C-C-H, prebuilt X-ca-ca-X
  1604     1603     1608     1607         9       180.000      15.16700    2     ; C-C-C-C, prebuilt X-ca-ca-X
  1604     1603     1608     1656         9       180.000      15.16700    2     ; C-C-C-H, prebuilt X-ca-ca-X
  1604     1605     1606     1607         9       180.000      15.16700    2     ; C-C-C-C, prebuilt X-ca-ca-X
  1604     1605     1606     1609         9       180.000      15.16700    2     ; C-C-C-N, prebuilt X-ca-ca-X
  1605     1604     1603     1608         9       180.000      15.16700    2     ; C-C-C-C, prebuilt X-ca-ca-X
  1605     1606     1607     1608         9       180.000      15.16700    2     ; C-C-C-C, prebuilt X-ca-ca-X
  1605     1606     1607     1655         9       180.000      15.16700    2     ; C-C-C-H, prebuilt X-ca-ca-X
  1605     1606     1609     1610         9       180.000       1.88280    2     ; C-C-N-C, prebuilt X-ca-n-X
  1605     1606     1609     1657         9       180.000       1.88280    2     ; C-C-N-H, prebuilt X-ca-n-X
  1606     1605     1604     1653         9       180.000      15.16700    2     ; C-C-C-H, prebuilt X-ca-ca-X
  1606     1607     1608     1656         9       180.000      15.16700    2     ; C-C-C-H, prebuilt X-ca-ca-X
  1606     1609     1610     1611         9       180.000      10.46000    2     ; C-N-C-O, prebuilt X-c-n-X
  1606     1609     1610     1612         9       180.000      10.46000    2     ; C-N-C-C, prebuilt X-c-n-X
  1607     1606     1605     1654         9       180.000      15.16700    2     ; C-C-C-H, prebuilt X-ca-ca-X
  1607     1606     1609     1610         9       180.000       1.88280    2     ; C-C-N-C, prebuilt X-ca-n-X
  1607     1606     1609     1657         9       180.000       1.88280    2     ; C-C-N-H, prebuilt X-ca-n-X
  1608     1603     1604     1653         9       180.000      15.16700    2     ; C-C-C-H, prebuilt X-ca-ca-X
  1608     1607     1606     1609         9       180.000      15.16700    2     ; C-C-C-N, prebuilt X-ca-ca-X
  1609     1606     1605     1654         9       180.000      15.16700    2     ; N-C-C-H, prebuilt X-ca-ca-X
  1609     1606     1607     1655         9       180.000      15.16700    2     ; N-C-C-H, prebuilt X-ca-ca-X
  1609     1610     1612     1613         9       180.000       4.18400    2     ; N-C-C-C, prebuilt X-c-ca-X
  1609     1610     1612     1617         9       180.000       4.18400    2     ; N-C-C-C, prebuilt X-c-ca-X
  1610     1612     1613     1614         9       180.000      15.16700    2     ; C-C-C-C, prebuilt X-ca-ca-X
  1610     1612     1613     1658         9       180.000      15.16700    2     ; C-C-C-H, prebuilt X-ca-ca-X
  1610     1612     1617     1616         9       180.000      15.16700    2     ; C-C-C-C, prebuilt X-ca-ca-X
  1610     1612     1617     1661         9       180.000      15.16700    2     ; C-C-C-H, prebuilt X-ca-ca-X
  1611     1610     1609     1657         9       180.000      10.46000    2     ; O-C-N-H, prebuilt hn-n-c-o
  1611     1610     1609     1657         9         0.000       8.36800    1     ; O-C-N-H, prebuilt hn-n-c-o
  1611     1610     1612     1613         9       180.000       4.18400    2     ; O-C-C-C, prebuilt X-c-ca-X
  1611     1610     1612     1617         9       180.000       4.18400    2     ; O-C-C-C, prebuilt X-c-ca-X
  1612     1610     1609     1657         9       180.000      10.46000    2     ; C-C-N-H, prebuilt X-c-n-X
  1612     1613     1614     1615         9       180.000      15.16700    2     ; C-C-C-C, prebuilt X-ca-ca-X
  1612     1613     1614     1659         9       180.000      15.16700    2     ; C-C-C-H, prebuilt X-ca-ca-X
  1612     1617     1616     1615         9       180.000      15.16700    2     ; C-C-C-C, prebuilt X-ca-ca-X
  1612     1617     1616     1660         9       180.000      15.16700    2     ; C-C-C-H, prebuilt X-ca-ca-X
  1613     1612     1617     1616         9       180.000      15.16700    2     ; C-C-C-C, prebuilt X-ca-ca-X
  1613     1612     1617     1661         9       180.000      15.16700    2     ; C-C-C-H, prebuilt X-ca-ca-X
  1613     1614     1615     1616         9       180.000      15.16700    2     ; C-C-C-C, prebuilt X-ca-ca-X
  1613     1614     1615     1618         9       180.000      15.16700    2     ; C-C-C-N, prebuilt X-ca-ca-X
  1614     1613     1612     1617         9       180.000      15.16700    2     ; C-C-C-C, prebuilt X-ca-ca-X
  1614     1615     1616     1617         9       180.000      15.16700    2     ; C-C-C-C, prebuilt X-ca-ca-X
  1614     1615     1616     1660         9       180.000      15.16700    2     ; C-C-C-H, prebuilt X-ca-ca-X
  1614     1615     1618     1619         9       180.000       1.88280    2     ; C-C-N-C, prebuilt X-ca-n-X
  1614     1615     1618     1623         9       180.000       1.88280    2     ; C-C-N-C, prebuilt X-ca-n-X
  1615     1614     1613     1658         9       180.000      15.16700    2     ; C-C-C-H, prebuilt X-ca-ca-X
  1615     1616     1617     1661         9       180.000      15.16700    2     ; C-C-C-H, prebuilt X-ca-ca-X
  1615     1618     1619     1620         9       180.000      10.46000    2     ; C-N-C-O, prebuilt X-c-n-X
  1615     1618     1619     1621         9       180.000      10.46000    2     ; C-N-C-C, prebuilt X-c-n-X
  1615     1618     1623     1622         9       180.000      10.46000    2     ; C-N-C-C, prebuilt X-c-n-X
  1615     1618     1623     1624         9       180.000      10.46000    2     ; C-N-C-O, prebuilt X-c-n-X
  1616     1615     1614     1659         9       180.000      15.16700    2     ; C-C-C-H, prebuilt X-ca-ca-X
  1616     1615     1618     1619         9       180.000       1.88280    2     ; C-C-N-C, prebuilt X-ca-n-X
  1616     1615     1618     1623         9       180.000       1.88280    2     ; C-C-N-C, prebuilt X-ca-n-X
  1617     1612     1613     1658         9       180.000      15.16700    2     ; C-C-C-H, prebuilt X-ca-ca-X
  1617     1616     1615     1618         9       180.000      15.16700    2     ; C-C-C-N, prebuilt X-ca-ca-X
  1618     1615     1614     1659         9       180.000      15.16700    2     ; N-C-C-H, prebuilt X-ca-ca-X
  1618     1615     1616     1660         9       180.000      15.16700    2     ; N-C-C-H, prebuilt X-ca-ca-X
  1618     1619     1621     1622         9       180.000       4.18400    2     ; N-C-C-C, prebuilt X-c-ca-X
  1618     1619     1621     1628         9       180.000       4.18400    2     ; N-C-C-C, prebuilt X-c-ca-X
  1618     1623     1622     1621         9       180.000       4.18400    2     ; N-C-C-C, prebuilt X-c-ca-X
  1618     1623     1622     1625         9       180.000       4.18400    2     ; N-C-C-C, prebuilt X-c-ca-X
  1619     1618     1623     1622         9       180.000      10.46000    2     ; C-N-C-C, prebuilt X-c-n-X
  1619     1618     1623     1624         9       180.000      10.46000    2     ; C-N-C-O, prebuilt X-c-n-X
  1619     1621     1622     1623         9       180.000      15.16700    2     ; C-C-C-C, prebuilt X-ca-ca-X
  1619     1621     1622     1625         9       180.000      15.16700    2     ; C-C-C-C, prebuilt X-ca-ca-X
  1619     1621     1628     1627         9       180.000      15.16700    2     ; C-C-C-C, prebuilt X-ca-ca-X
  1619     1621     1628     1664         9       180.000      15.16700    2     ; C-C-C-H, prebuilt X-ca-ca-X
  1620     1619     1618     1623         9       180.000      10.46000    2     ; O-C-N-C, prebuilt X-c-n-X
  1620     1619     1621     1622         9       180.000       4.18400    2     ; O-C-C-C, prebuilt X-c-ca-X
  1620     1619     1621     1628         9       180.000       4.18400    2     ; O-C-C-C, prebuilt X-c-ca-X
  1621     1619     1618     1623         9       180.000      10.46000    2     ; C-C-N-C, prebuilt X-c-n-X
  1621     1622     1623     1624         9       180.000       4.18400    2     ; C-C-C-O, prebuilt X-c-ca-X
  1621     1622     1625     1626         9       180.000      15.16700    2     ; C-C-C-C, prebuilt X-ca-ca-X
  1621     1622     1625     1662         9       180.000      15.16700    2     ; C-C-C-H, prebuilt X-ca-ca-X
  1621     1628     1627     1626         9       180.000      15.16700    2     ; C-C-C-C, prebuilt X-ca-ca-X
  1621     1628     1627     1663         9       180.000      15.16700    2     ; C-C-C-H, prebuilt X-ca-ca-X
  1622     1621     1628     1627         9       180.000      15.16700    2     ; C-C-C-C, prebuilt X-ca-ca-X
  1622     1621     1628     1664         9       180.000      15.16700    2     ; C-C-C-H, prebuilt X-ca-ca-X
  1622     1625     1626     1627         9       180.000      15.16700    2     ; C-C-C-C, prebuilt X-ca-cp-X
  1622     1625     1626     1668         9       180.000      15.16700    2     ; C-C-C-C, prebuilt X-ca-cp-X
  1623     1622     1621     1628         9       180.000      15.16700    2     ; C-C-C-C, prebuilt X-ca-ca-X
  1623     1622     1625     1626         9       180.000      15.16700    2     ; C-C-C-C, prebuilt X-ca-ca-X
  1623     1622     1625     1662         9       180.000      15.16700    2     ; C-C-C-H, prebuilt X-ca-ca-X
  1624     1623     1622     1625         9       180.000       4.18400    2     ; O-C-C-C, prebuilt X-c-ca-X
  1625     1622     1621     1628         9       180.000      15.16700    2     ; C-C-C-C, prebuilt X-ca-ca-X
  1625     1626     1627     1628         9       180.000      15.16700    2     ; C-C-C-C, prebuilt X-ca-cp-X
  1625     1626     1627     1663         9       180.000      15.16700    2     ; C-C-C-H, prebuilt X-ca-cp-X
  1625     1626     1668     1669         9       180.000       4.18400    2     ; C-C-C-C, prebuilt X-cp-cp-X
  1625     1626     1668     1673         9       180.000       4.18400    2     ; C-C-C-C, prebuilt X-cp-cp-X
  1626     1627     1628     1664         9       180.000      15.16700    2     ; C-C-C-H, prebuilt X-ca-ca-X
  1626     1668     1669     1670         9       180.000      15.16700    2     ; C-C-C-C, prebuilt X-ca-cp-X
  1626     1668     1669     1750         9       180.000      15.16700    2     ; C-C-C-H, prebuilt X-ca-cp-X
  1626     1668     1673     1672         9       180.000      15.16700    2     ; C-C-C-C, prebuilt X-ca-cp-X
  1626     1668     1673     1752         9       180.000      15.16700    2     ; C-C-C-H, prebuilt X-ca-cp-X
  1627     1626     1625     1662         9       180.000      15.16700    2     ; C-C-C-H, prebuilt X-ca-cp-X
  1627     1626     1668     1669         9       180.000       4.18400    2     ; C-C-C-C, prebuilt X-cp-cp-X
  1627     1626     1668     1673         9       180.000       4.18400    2     ; C-C-C-C, prebuilt X-cp-cp-X
  1628     1627     1626     1668         9       180.000      15.16700    2     ; C-C-C-C, prebuilt X-ca-cp-X
  1629     1572     1571     1639         9       180.000      15.16700    2     ; C-C-C-H, prebuilt X-ca-ca-X
  1629     1572     1573     1640         9       180.000      15.16700    2     ; C-C-C-H, prebuilt X-ca-ca-X
  1630     1550     1551     1631         9       180.000      15.16700    2     ; H-C-C-H, prebuilt X-ca-ca-X
  1633     1561     1562     1634         9       180.000      15.16700    2     ; H-C-C-H, prebuilt X-ca-ca-X
  1635     1564     1565     1636         9       180.000      15.16700    2     ; H-C-C-H, prebuilt X-ca-ca-X
  1638     1570     1571     1639         9       180.000      15.16700    2     ; H-C-C-H, prebuilt X-ca-ca-X
  1642     1584     1585     1643         9       180.000      15.16700    2     ; H-C-C-H, prebuilt X-ca-ca-X
  1645     1590     1591     1646         9       180.000      15.16700    2     ; H-C-C-H, prebuilt X-ca-ca-X
  1647     1593     1594     1648         9       180.000      15.16700    2     ; H-C-C-H, prebuilt X-ca-ca-X
  1649     1597     1598     1650         9       180.000      15.16700    2     ; H-C-C-H, prebuilt X-ca-ca-X
  1650     1598     1599     1651         9       180.000      15.16700    2     ; H-C-C-H, prebuilt X-ca-ca-X
  1651     1599     1600     1652         9       180.000      15.16700    2     ; H-C-C-H, prebuilt X-ca-ca-X
  1653     1604     1605     1654         9       180.000      15.16700    2     ; H-C-C-H, prebuilt X-ca-ca-X
  1655     1607     1608     1656         9       180.000      15.16700    2     ; H-C-C-H, prebuilt X-ca-ca-X
  1658     1613     1614     1659         9       180.000      15.16700    2     ; H-C-C-H, prebuilt X-ca-ca-X
  1660     1616     1617     1661         9       180.000      15.16700    2     ; H-C-C-H, prebuilt X-ca-ca-X
  1662     1625     1626     1668         9       180.000      15.16700    2     ; H-C-C-C, prebuilt X-ca-cp-X
  1663     1627     1626     1668         9       180.000      15.16700    2     ; H-C-C-C, prebuilt X-ca-cp-X
  1663     1627     1628     1664         9       180.000      15.16700    2     ; H-C-C-H, prebuilt X-ca-ca-X
  1668     1669     1670     1671         9       180.000      15.16700    2     ; C-C-C-C, prebuilt X-ca-ca-X
  1668     1669     1670     1751         9       180.000      15.16700    2     ; C-C-C-H, prebuilt X-ca-ca-X
  1668     1673     1672     1671         9       180.000      15.16700    2     ; C-C-C-C, prebuilt X-ca-ca-X
  1668     1673     1672     1674         9       180.000      15.16700    2     ; C-C-C-C, prebuilt X-ca-ca-X
  1669     1668     1673     1672         9       180.000      15.16700    2     ; C-C-C-C, prebuilt X-ca-cp-X
  1669     1668     1673     1752         9       180.000      15.16700    2     ; C-C-C-H, prebuilt X-ca-cp-X
  1669     1670     1671     1672         9       180.000      15.16700    2     ; C-C-C-C, prebuilt X-ca-ca-X
  1669     1670     1671     1677         9       180.000      15.16700    2     ; C-C-C-C, prebuilt X-ca-ca-X
  1670     1669     1668     1673         9       180.000      15.16700    2     ; C-C-C-C, prebuilt X-ca-cp-X
  1670     1671     1672     1673         9       180.000      15.16700    2     ; C-C-C-C, prebuilt X-ca-ca-X
  1670     1671     1672     1674         9       180.000      15.16700    2     ; C-C-C-C, prebuilt X-ca-ca-X
  1670     1671     1677     1676         9       180.000       4.18400    2     ; C-C-C-N, prebuilt X-c-ca-X
  1670     1671     1677     1678         9       180.000       4.18400    2     ; C-C-C-O, prebuilt X-c-ca-X
  1671     1670     1669     1750         9       180.000      15.16700    2     ; C-C-C-H, prebuilt X-ca-ca-X
  1671     1672     1673     1752         9       180.000      15.16700    2     ; C-C-C-H, prebuilt X-ca-ca-X
  1671     1672     1674     1675         9       180.000       4.18400    2     ; C-C-C-O, prebuilt X-c-ca-X
  1671     1672     1674     1676         9       180.000       4.18400    2     ; C-C-C-N, prebuilt X-c-ca-X
  1671     1677     1676     1674         9       180.000      10.46000    2     ; C-C-N-C, prebuilt X-c-n-X
  1671     1677     1676     1679         9       180.000      10.46000    2     ; C-C-N-C, prebuilt X-c-n-X
  1672     1671     1670     1751         9       180.000      15.16700    2     ; C-C-C-H, prebuilt X-ca-ca-X
  1672     1671     1677     1676         9       180.000       4.18400    2     ; C-C-C-N, prebuilt X-c-ca-X
  1672     1671     1677     1678         9       180.000       4.18400    2     ; C-C-C-O, prebuilt X-c-ca-X
  1672     1674     1676     1677         9       180.000      10.46000    2     ; C-C-N-C, prebuilt X-c-n-X
  1672     1674     1676     1679         9       180.000      10.46000    2     ; C-C-N-C, prebuilt X-c-n-X
  1673     1668     1669     1750         9       180.000      15.16700    2     ; C-C-C-H, prebuilt X-ca-cp-X
  1673     1672     1671     1677         9       180.000      15.16700    2     ; C-C-C-C, prebuilt X-ca-ca-X
  1673     1672     1674     1675         9       180.000       4.18400    2     ; C-C-C-O, prebuilt X-c-ca-X
  1673     1672     1674     1676         9       180.000       4.18400    2     ; C-C-C-N, prebuilt X-c-ca-X
  1674     1672     1671     1677         9       180.000      15.16700    2     ; C-C-C-C, prebuilt X-ca-ca-X
  1674     1672     1673     1752         9       180.000      15.16700    2     ; C-C-C-H, prebuilt X-ca-ca-X
  1674     1676     1677     1678         9       180.000      10.46000    2     ; C-N-C-O, prebuilt X-c-n-X
  1674     1676     1679     1680         9       180.000       1.88280    2     ; C-N-C-C, prebuilt X-ca-n-X
  1674     1676     1679     1684         9       180.000       1.88280    2     ; C-N-C-C, prebuilt X-ca-n-X
  1675     1674     1676     1677         9       180.000      10.46000    2     ; O-C-N-C, prebuilt X-c-n-X
  1675     1674     1676     1679         9       180.000      10.46000    2     ; O-C-N-C, prebuilt X-c-n-X
  1676     1679     1680     1681         9       180.000      15.16700    2     ; N-C-C-C, prebuilt X-ca-ca-X
  1676     1679     1680     1753         9       180.000      15.16700    2     ; N-C-C-H, prebuilt X-ca-ca-X
  1676     1679     1684     1683         9       180.000      15.16700    2     ; N-C-C-C, prebuilt X-ca-ca-X
  1676     1679     1684     1756         9       180.000      15.16700    2     ; N-C-C-H, prebuilt X-ca-ca-X
  1677     1671     1670     1751         9       180.000      15.16700    2     ; C-C-C-H, prebuilt X-ca-ca-X
  1677     1676     1679     1680         9       180.000       1.88280    2     ; C-N-C-C, prebuilt X-ca-n-X
  1677     1676     1679     1684         9       180.000       1.88280    2     ; C-N-C-C, prebuilt X-ca-n-X
  1678     1677     1676     1679         9       180.000      10.46000    2     ; O-C-N-C, prebuilt X-c-n-X
  1679     1680     1681     1682         9       180.000      15.16700    2     ; C-C-C-C, prebuilt X-ca-ca-X
  1679     1680     1681     1754         9       180.000      15.16700    2     ; C-C-C-H, prebuilt X-ca-ca-X
  1679     1684     1683     1682         9       180.000      15.16700    2     ; C-C-C-C, prebuilt X-ca-ca-X
  1679     1684     1683     1755         9       180.000      15.16700    2     ; C-C-C-H, prebuilt X-ca-ca-X
  1680     1679     1684     1683         9       180.000      15.16700    2     ; C-C-C-C, prebuilt X-ca-ca-X
  1680     1679     1684     1756         9       180.000      15.16700    2     ; C-C-C-H, prebuilt X-ca-ca-X
  1680     1681     1682     1683         9       180.000      15.16700    2     ; C-C-C-C, prebuilt X-ca-ca-X
  1680     1681     1682     1685         9       180.000      15.16700    2     ; C-C-C-N, prebuilt X-ca-ca-X
  1681     1680     1679     1684         9       180.000      15.16700    2     ; C-C-C-C, prebuilt X-ca-ca-X
  1681     1682     1683     1684         9       180.000      15.16700    2     ; C-C-C-C, prebuilt X-ca-ca-X
  1681     1682     1683     1755         9       180.000      15.16700    2     ; C-C-C-H, prebuilt X-ca-ca-X
  1681     1682     1685     1686         9       180.000       1.88280    2     ; C-C-N-C, prebuilt X-ca-n-X
  1681     1682     1685     1757         9       180.000       1.88280    2     ; C-C-N-H, prebuilt X-ca-n-X
  1682     1681     1680     1753         9       180.000      15.16700    2     ; C-C-C-H, prebuilt X-ca-ca-X
  1682     1683     1684     1756         9       180.000      15.16700    2     ; C-C-C-H, prebuilt X-ca-ca-X
  1682     1685     1686     1687         9       180.000      10.46000    2     ; C-N-C-O, prebuilt X-c-n-X
  1682     1685     1686     1688         9       180.000      10.46000    2     ; C-N-C-C, prebuilt X-c-n-X
  1683     1682     1681     1754         9       180.000      15.16700    2     ; C-C-C-H, prebuilt X-ca-ca-X
  1683     1682     1685     1686         9       180.000       1.88280    2     ; C-C-N-C, prebuilt X-ca-n-X
  1683     1682     1685     1757         9       180.000       1.88280    2     ; C-C-N-H, prebuilt X-ca-n-X
  1684     1679     1680     1753         9       180.000      15.16700    2     ; C-C-C-H, prebuilt X-ca-ca-X
  1684     1683     1682     1685         9       180.000      15.16700    2     ; C-C-C-N, prebuilt X-ca-ca-X
  1685     1682     1681     1754         9       180.000      15.16700    2     ; N-C-C-H, prebuilt X-ca-ca-X
  1685     1682     1683     1755         9       180.000      15.16700    2     ; N-C-C-H, prebuilt X-ca-ca-X
  1685     1686     1688     1689         9       180.000       4.18400    2     ; N-C-C-C, prebuilt X-c-ca-X
  1685     1686     1688     1693         9       180.000       4.18400    2     ; N-C-C-C, prebuilt X-c-ca-X
  1686     1688     1689     1690         9       180.000      15.16700    2     ; C-C-C-C, prebuilt X-ca-ca-X
  1686     1688     1689     1758         9       180.000      15.16700    2     ; C-C-C-H, prebuilt X-ca-ca-X
  1686     1688     1693     1692         9       180.000      15.16700    2     ; C-C-C-C, prebuilt X-ca-ca-X
  1686     1688     1693     1694         9       180.000      15.16700    2     ; C-C-C-N, prebuilt X-ca-ca-X
  1687     1686     1685     1757         9       180.000      10.46000    2     ; O-C-N-H, prebuilt hn-n-c-o
  1687     1686     1685     1757         9         0.000       8.36800    1     ; O-C-N-H, prebuilt hn-n-c-o
  1687     1686     1688     1689         9       180.000       4.18400    2     ; O-C-C-C, prebuilt X-c-ca-X
  1687     1686     1688     1693         9       180.000       4.18400    2     ; O-C-C-C, prebuilt X-c-ca-X
  1688     1686     1685     1757         9       180.000      10.46000    2     ; C-C-N-H, prebuilt X-c-n-X
  1688     1689     1690     1691         9       180.000      15.16700    2     ; C-C-C-C, prebuilt X-ca-ca-X
  1688     1689     1690     1759         9       180.000      15.16700    2     ; C-C-C-H, prebuilt X-ca-ca-X
  1688     1693     1692     1691         9       180.000      15.16700    2     ; C-C-C-C, prebuilt X-ca-ca-X
  1688     1693     1692     1760         9       180.000      15.16700    2     ; C-C-C-H, prebuilt X-ca-ca-X
  1688     1693     1694     1695         9       180.000       1.88280    2     ; C-C-N-C, prebuilt X-ca-n-X
  1688     1693     1694     1699         9       180.000       1.88280    2     ; C-C-N-C, prebuilt X-ca-n-X
  1689     1688     1693     1692         9       180.000      15.16700    2     ; C-C-C-C, prebuilt X-ca-ca-X
  1689     1688     1693     1694         9       180.000      15.16700    2     ; C-C-C-N, prebuilt X-ca-ca-X
  1689     1690     1691     1692         9       180.000      15.16700    2     ; C-C-C-C, prebuilt X-ca-ca-X
  1689     1690     1691     1749         9       180.000      15.16700    2     ; C-C-C-C, prebuilt X-ca-ca-X
  1690     1689     1688     1693         9       180.000      15.16700    2     ; C-C-C-C, prebuilt X-ca-ca-X
  1690     1691     1692     1693         9       180.000      15.16700    2     ; C-C-C-C, prebuilt X-ca-ca-X
  1690     1691     1692     1760         9       180.000      15.16700    2     ; C-C-C-H, prebuilt X-ca-ca-X
  1690     1691     1749     1785         9         0.000       0.00000    2     ; C-C-C-H, prebuilt X-c3-ca-X
  1690     1691     1749     1786         9         0.000       0.00000    2     ; C-C-C-H, prebuilt X-c3-ca-X
  1690     1691     1749     1787         9         0.000       0.00000    2     ; C-C-C-H, prebuilt X-c3-ca-X
  1691     1690     1689     1758         9       180.000      15.16700    2     ; C-C-C-H, prebuilt X-ca-ca-X
  1691     1692     1693     1694         9       180.000      15.16700    2     ; C-C-C-N, prebuilt X-ca-ca-X
  1692     1691     1690     1759         9       180.000      15.16700    2     ; C-C-C-H, prebuilt X-ca-ca-X
  1692     1691     1749     1785         9         0.000       0.00000    2     ; C-C-C-H, prebuilt X-c3-ca-X
  1692     1691     1749     1786         9         0.000       0.00000    2     ; C-C-C-H, prebuilt X-c3-ca-X
  1692     1691     1749     1787         9         0.000       0.00000    2     ; C-C-C-H, prebuilt X-c3-ca-X
  1692     1693     1694     1695         9       180.000       1.88280    2     ; C-C-N-C, prebuilt X-ca-n-X
  1692     1693     1694     1699         9       180.000       1.88280    2     ; C-C-N-C, prebuilt X-ca-n-X
  1693     1688     1689     1758         9       180.000      15.16700    2     ; C-C-C-H, prebuilt X-ca-ca-X
  1693     1692     1691     1749         9       180.000      15.16700    2     ; C-C-C-C, prebuilt X-ca-ca-X
  1693     1694     1695     1696         9       180.000      10.46000    2     ; C-N-C-O, prebuilt X-c-n-X
  1693     1694     1695     1697         9       180.000      10.46000    2     ; C-N-C-C, prebuilt X-c-n-X
  1693     1694     1699     1698         9       180.000      10.46000    2     ; C-N-C-C, prebuilt X-c-n-X
  1693     1694     1699     1700         9       180.000      10.46000    2     ; C-N-C-O, prebuilt X-c-n-X
  1694     1693     1692     1760         9       180.000      15.16700    2     ; N-C-C-H, prebuilt X-ca-ca-X
  1694     1695     1697     1698         9       180.000       4.18400    2     ; N-C-C-C, prebuilt X-c-ca-X
  1694     1695     1697     1704         9       180.000       4.18400    2     ; N-C-C-C, prebuilt X-c-ca-X
  1694     1699     1698     1697         9       180.000       4.18400    2     ; N-C-C-C, prebuilt X-c-ca-X
  1694     1699     1698     1701         9       180.000       4.18400    2     ; N-C-C-C, prebuilt X-c-ca-X
  1695     1694     1699     1698         9       180.000      10.46000    2     ; C-N-C-C, prebuilt X-c-n-X
  1695     1694     1699     1700         9       180.000      10.46000    2     ; C-N-C-O, prebuilt X-c-n-X
  1695     1697     1698     1699         9       180.000      15.16700    2     ; C-C-C-C, prebuilt X-ca-ca-X
  1695     1697     1698     1701         9       180.000      15.16700    2     ; C-C-C-C, prebuilt X-ca-ca-X
  1695     1697     1704     1703         9       180.000      15.16700    2     ; C-C-C-C, prebuilt X-ca-ca-X
  1695     1697     1704     1763         9       180.000      15.16700    2     ; C-C-C-H, prebuilt X-ca-ca-X
  1696     1695     1694     1699         9       180.000      10.46000    2     ; O-C-N-C, prebuilt X-c-n-X
  1696     1695     1697     1698         9       180.000       4.18400    2     ; O-C-C-C, prebuilt X-c-ca-X
  1696     1695     1697     1704         9       180.000       4.18400    2     ; O-C-C-C, prebuilt X-c-ca-X
  1697     1695     1694     1699         9       180.000      10.46000    2     ; C-C-N-C, prebuilt X-c-n-X
  1697     1698     1699     1700         9       180.000       4.18400    2     ; C-C-C-O, prebuilt X-c-ca-X
  1697     1698     1701     1702         9       180.000      15.16700    2     ; C-C-C-C, prebuilt X-ca-ca-X
  1697     1698     1701     1761         9       180.000      15.16700    2     ; C-C-C-H, prebuilt X-ca-ca-X
  1697     1704     1703     1702         9       180.000      15.16700    2     ; C-C-C-C, prebuilt X-ca-ca-X
  1697     1704     1703     1762         9       180.000      15.16700    2     ; C-C-C-H, prebuilt X-ca-ca-X
  1698     1697     1704     1703         9       180.000      15.16700    2     ; C-C-C-C, prebuilt X-ca-ca-X
  1698     1697     1704     1763         9       180.000      15.16700    2     ; C-C-C-H, prebuilt X-ca-ca-X
  1698     1701     1702     1703         9       180.000      15.16700    2     ; C-C-C-C, prebuilt X-ca-ca-X
  1698     1701     1702     1705         9       180.000      15.16700    2     ; C-C-C-C, prebuilt X-ca-ca-X
  1699     1698     1697     1704         9       180.000      15.16700    2     ; C-C-C-C, prebuilt X-ca-ca-X
  1699     1698     1701     1702         9       180.000      15.16700    2     ; C-C-C-C, prebuilt X-ca-ca-X
  1699     1698     1701     1761         9       180.000      15.16700    2     ; C-C-C-H, prebuilt X-ca-ca-X
  1700     1699     1698     1701         9       180.000       4.18400    2     ; O-C-C-C, prebuilt X-c-ca-X
  1701     1698     1697     1704         9       180.000      15.16700    2     ; C-C-C-C, prebuilt X-ca-ca-X
  1701     1702     1703     1704         9       180.000      15.16700    2     ; C-C-C-C, prebuilt X-ca-ca-X
  1701     1702     1703     1762         9       180.000      15.16700    2     ; C-C-C-H, prebuilt X-ca-ca-X
  1701     1702     1705     1706         9       180.000       4.18400    2     ; C-C-C-O, prebuilt X-c-ca-X
  1701     1702     1705     1707         9       180.000       4.18400    2     ; C-C-C-N, prebuilt X-c-ca-X
  1702     1703     1704     1763         9       180.000      15.16700    2     ; C-C-C-H, prebuilt X-ca-ca-X
  1702     1705     1707     1708         9       180.000      10.46000    2     ; C-C-N-C, prebuilt X-c-n-X
  1702     1705     1707     1764         9       180.000      10.46000    2     ; C-C-N-H, prebuilt X-c-n-X
  1703     1702     1701     1761         9       180.000      15.16700    2     ; C-C-C-H, prebuilt X-ca-ca-X
  1703     1702     1705     1706         9       180.000       4.18400    2     ; C-C-C-O, prebuilt X-c-ca-X
  1703     1702     1705     1707         9       180.000       4.18400    2     ; C-C-C-N, prebuilt X-c-ca-X
  1704     1703     1702     1705         9       180.000      15.16700    2     ; C-C-C-C, prebuilt X-ca-ca-X
  1705     1702     1701     1761         9       180.000      15.16700    2     ; C-C-C-H, prebuilt X-ca-ca-X
  1705     1702     1703     1762         9       180.000      15.16700    2     ; C-C-C-H, prebuilt X-ca-ca-X
  1705     1707     1708     1709         9       180.000       1.88280    2     ; C-N-C-C, prebuilt X-ca-n-X
  1705     1707     1708     1713         9       180.000       1.88280    2     ; C-N-C-C, prebuilt X-ca-n-X
  1706     1705     1707     1708         9       180.000      10.46000    2     ; O-C-N-C, prebuilt X-c-n-X
  1706     1705     1707     1764         9       180.000      10.46000    2     ; O-C-N-H, prebuilt hn-n-c-o
  1706     1705     1707     1764         9         0.000       8.36800    1     ; O-C-N-H, prebuilt hn-n-c-o
  1707     1708     1709     1710         9       180.000      15.16700    2     ; N-C-C-C, prebuilt X-ca-ca-X
  1707     1708     1709     1765         9       180.000      15.16700    2     ; N-C-C-H, prebuilt X-ca-ca-X
  1707     1708     1713     1712         9       180.000      15.16700    2     ; N-C-C-C, prebuilt X-ca-ca-X
  1707     1708     1713     1768         9       180.000      15.16700    2     ; N-C-C-H, prebuilt X-ca-ca-X
  1708     1709     1710     1711         9       180.000      15.16700    2     ; C-C-C-C, prebuilt X-ca-ca-X
  1708     1709     1710     1766         9       180.000      15.16700    2     ; C-C-C-H, prebuilt X-ca-ca-X
  1708     1713     1712     1711         9       180.000      15.16700    2     ; C-C-C-C, prebuilt X-ca-ca-X
  1708     1713     1712     1767         9       180.000      15.16700    2     ; C-C-C-H, prebuilt X-ca-ca-X
  1709     1708     1707     1764         9       180.000       1.88280    2     ; C-C-N-H, prebuilt X-ca-n-X
  1709     1708     1713     1712         9       180.000      15.16700    2     ; C-C-C-C, prebuilt X-ca-ca-X
  1709     1708     1713     1768         9       180.000      15.16700    2     ; C-C-C-H, prebuilt X-ca-ca-X
  1709     1710     1711     1712         9       180.000      15.16700    2     ; C-C-C-C, prebuilt X-ca-ca-X
  1709     1710     1711     1714         9       180.000      15.16700    2     ; C-C-C-O, prebuilt X-ca-ca-X
  1710     1709     1708     1713         9       180.000      15.16700    2     ; C-C-C-C, prebuilt X-ca-ca-X
  1710     1711     1712     1713         9       180.000      15.16700    2     ; C-C-C-C, prebuilt X-ca-ca-X
  1710     1711     1712     1767         9       180.000      15.16700    2     ; C-C-C-H, prebuilt X-ca-ca-X
  1710     1711     1714     1715         9       180.000       3.76560    2     ; C-C-O-C, prebuilt X-ca-os-X
  1711     1710     1709     1765         9       180.000      15.16700    2     ; C-C-C-H, prebuilt X-ca-ca-X
  1711     1712     1713     1768         9       180.000      15.16700    2     ; C-C-C-H, prebuilt X-ca-ca-X
  1711     1714     1715     1716         9       180.000       3.76560    2     ; C-O-C-C, prebuilt X-ca-os-X
  1711     1714     1715     1720         9       180.000       3.76560    2     ; C-O-C-C, prebuilt X-ca-os-X
  1712     1711     1710     1766         9       180.000      15.16700    2     ; C-C-C-H, prebuilt X-ca-ca-X
  1712     1711     1714     1715         9       180.000       3.76560    2     ; C-C-O-C, prebuilt X-ca-os-X
  1713     1708     1707     1764         9       180.000       1.88280    2     ; C-C-N-H, prebuilt X-ca-n-X
  1713     1708     1709     1765         9       180.000      15.16700    2     ; C-C-C-H, prebuilt X-ca-ca-X
  1713     1712     1711     1714         9       180.000      15.16700    2     ; C-C-C-O, prebuilt X-ca-ca-X
  1714     1711     1710     1766         9       180.000      15.16700    2     ; O-C-C-H, prebuilt X-ca-ca-X
  1714     1711     1712     1767         9       180.000      15.16700    2     ; O-C-C-H, prebuilt X-ca-ca-X
  1714     1715     1716     1717         9       180.000      15.16700    2     ; O-C-C-C, prebuilt X-ca-ca-X
  1714     1715     1716     1769         9       180.000      15.16700    2     ; O-C-C-H, prebuilt X-ca-ca-X
  1714     1715     1720     1719         9       180.000      15.16700    2     ; O-C-C-C, prebuilt X-ca-ca-X
  1714     1715     1720     1721         9       180.000      15.16700    2     ; O-C-C-O, prebuilt X-ca-ca-X
  1715     1716     1717     1718         9       180.000      15.16700    2     ; C-C-C-C, prebuilt X-ca-ca-X
  1715     1716     1717     1770         9       180.000      15.16700    2     ; C-C-C-H, prebuilt X-ca-ca-X
  1715     1720     1719     1718         9       180.000      15.16700    2     ; C-C-C-C, prebuilt X-ca-ca-X
  1715     1720     1719     1772         9       180.000      15.16700    2     ; C-C-C-H, prebuilt X-ca-ca-X
  1715     1720     1721     1722         9       180.000       3.76560    2     ; C-C-O-C, prebuilt X-ca-os-X
  1716     1715     1720     1719         9       180.000      15.16700    2     ; C-C-C-C, prebuilt X-ca-ca-X
  1716     1715     1720     1721         9       180.000      15.16700    2     ; C-C-C-O, prebuilt X-ca-ca-X
  1716     1717     1718     1719         9       180.000      15.16700    2     ; C-C-C-C, prebuilt X-ca-ca-X
  1716     1717     1718     1771         9       180.000      15.16700    2     ; C-C-C-H, prebuilt X-ca-ca-X
  1717     1716     1715     1720         9       180.000      15.16700    2     ; C-C-C-C, prebuilt X-ca-ca-X
  1717     1718     1719     1720         9       180.000      15.16700    2     ; C-C-C-C, prebuilt X-ca-ca-X
  1717     1718     1719     1772         9       180.000      15.16700    2     ; C-C-C-H, prebuilt X-ca-ca-X
  1718     1717     1716     1769         9       180.000      15.16700    2     ; C-C-C-H, prebuilt X-ca-ca-X
  1718     1719     1720     1721         9       180.000      15.16700    2     ; C-C-C-O, prebuilt X-ca-ca-X
  1719     1718     1717     1770         9       180.000      15.16700    2     ; C-C-C-H, prebuilt X-ca-ca-X
  1719     1720     1721     1722         9       180.000       3.76560    2     ; C-C-O-C, prebuilt X-ca-os-X
  1720     1715     1716     1769         9       180.000      15.16700    2     ; C-C-C-H, prebuilt X-ca-ca-X
  1720     1719     1718     1771         9       180.000      15.16700    2     ; C-C-C-H, prebuilt X-ca-ca-X
  1720     1721     1722     1723         9       180.000       3.76560    2     ; C-O-C-C, prebuilt X-ca-os-X
  1720     1721     1722     1727         9       180.000       3.76560    2     ; C-O-C-C, prebuilt X-ca-os-X
  1721     1720     1719     1772         9       180.000      15.16700    2     ; O-C-C-H, prebuilt X-ca-ca-X
  1721     1722     1723     1724         9       180.000      15.16700    2     ; O-C-C-C, prebuilt X-ca-ca-X
  1721     1722     1723     1773         9       180.000      15.16700    2     ; O-C-C-H, prebuilt X-ca-ca-X
  1721     1722     1727     1726         9       180.000      15.16700    2     ; O-C-C-C, prebuilt X-ca-ca-X
  1721     1722     1727     1776         9       180.000      15.16700    2     ; O-C-C-H, prebuilt X-ca-ca-X
  1722     1723     1724     1725         9       180.000      15.16700    2     ; C-C-C-C, prebuilt X-ca-ca-X
  1722     1723     1724     1774         9       180.000      15.16700    2     ; C-C-C-H, prebuilt X-ca-ca-X
  1722     1727     1726     1725         9       180.000      15.16700    2     ; C-C-C-C, prebuilt X-ca-ca-X
  1722     1727     1726     1775         9       180.000      15.16700    2     ; C-C-C-H, prebuilt X-ca-ca-X
  1723     1722     1727     1726         9       180.000      15.16700    2     ; C-C-C-C, prebuilt X-ca-ca-X
  1723     1722     1727     1776         9       180.000      15.16700    2     ; C-C-C-H, prebuilt X-ca-ca-X
  1723     1724     1725     1726         9       180.000      15.16700    2     ; C-C-C-C, prebuilt X-ca-ca-X
  1723     1724     1725     1728         9       180.000      15.16700    2     ; C-C-C-N, prebuilt X-ca-ca-X
  1724     1723     1722     1727         9       180.000      15.16700    2     ; C-C-C-C, prebuilt X-ca-ca-X
  1724     1725     1726     1727         9       180.000      15.16700    2     ; C-C-C-C, prebuilt X-ca-ca-X
  1724     1725     1726     1775         9       180.000      15.16700    2     ; C-C-C-H, prebuilt X-ca-ca-X
  1724     1725     1728     1729         9       180.000       1.88280    2     ; C-C-N-C, prebuilt X-ca-n-X
  1724     1725     1728     1777         9       180.000       1.88280    2     ; C-C-N-H, prebuilt X-ca-n-X
  1725     1724     1723     1773         9       180.000      15.16700    2     ; C-C-C-H, prebuilt X-ca-ca-X
  1725     1726     1727     1776         9       180.000      15.16700    2     ; C-C-C-H, prebuilt X-ca-ca-X
  1725     1728     1729     1730         9       180.000      10.46000    2     ; C-N-C-O, prebuilt X-c-n-X
  1725     1728     1729     1731         9       180.000      10.46000    2     ; C-N-C-C, prebuilt X-c-n-X
  1726     1725     1724     1774         9       180.000      15.16700    2     ; C-C-C-H, prebuilt X-ca-ca-X
  1726     1725     1728     1729         9       180.000       1.88280    2     ; C-C-N-C, prebuilt X-ca-n-X
  1726     1725     1728     1777         9       180.000       1.88280    2     ; C-C-N-H, prebuilt X-ca-n-X
  1727     1722     1723     1773         9       180.000      15.16700    2     ; C-C-C-H, prebuilt X-ca-ca-X
  1727     1726     1725     1728         9       180.000      15.16700    2     ; C-C-C-N, prebuilt X-ca-ca-X
  1728     1725     1724     1774         9       180.000      15.16700    2     ; N-C-C-H, prebuilt X-ca-ca-X
  1728     1725     1726     1775         9       180.000      15.16700    2     ; N-C-C-H, prebuilt X-ca-ca-X
  1728     1729     1731     1732         9       180.000       4.18400    2     ; N-C-C-C, prebuilt X-c-ca-X
  1728     1729     1731     1736         9       180.000       4.18400    2     ; N-C-C-C, prebuilt X-c-ca-X
  1729     1731     1732     1733         9       180.000      15.16700    2     ; C-C-C-C, prebuilt X-ca-ca-X
  1729     1731     1732     1778         9       180.000      15.16700    2     ; C-C-C-H, prebuilt X-ca-ca-X
  1729     1731     1736     1735         9       180.000      15.16700    2     ; C-C-C-C, prebuilt X-ca-ca-X
  1729     1731     1736     1781         9       180.000      15.16700    2     ; C-C-C-H, prebuilt X-ca-ca-X
  1730     1729     1728     1777         9       180.000      10.46000    2     ; O-C-N-H, prebuilt hn-n-c-o
  1730     1729     1728     1777         9         0.000       8.36800    1     ; O-C-N-H, prebuilt hn-n-c-o
  1730     1729     1731     1732         9       180.000       4.18400    2     ; O-C-C-C, prebuilt X-c-ca-X
  1730     1729     1731     1736         9       180.000       4.18400    2     ; O-C-C-C, prebuilt X-c-ca-X
  1731     1729     1728     1777         9       180.000      10.46000    2     ; C-C-N-H, prebuilt X-c-n-X
  1731     1732     1733     1734         9       180.000      15.16700    2     ; C-C-C-C, prebuilt X-ca-ca-X
  1731     1732     1733     1779         9       180.000      15.16700    2     ; C-C-C-H, prebuilt X-ca-ca-X
  1731     1736     1735     1734         9       180.000      15.16700    2     ; C-C-C-C, prebuilt X-ca-ca-X
  1731     1736     1735     1780         9       180.000      15.16700    2     ; C-C-C-H, prebuilt X-ca-ca-X
  1732     1731     1736     1735         9       180.000      15.16700    2     ; C-C-C-C, prebuilt X-ca-ca-X
  1732     1731     1736     1781         9       180.000      15.16700    2     ; C-C-C-H, prebuilt X-ca-ca-X
  1732     1733     1734     1735         9       180.000      15.16700    2     ; C-C-C-C, prebuilt X-ca-ca-X
  1732     1733     1734     1737         9       180.000      15.16700    2     ; C-C-C-N, prebuilt X-ca-ca-X
  1733     1732     1731     1736         9       180.000      15.16700    2     ; C-C-C-C, prebuilt X-ca-ca-X
  1733     1734     1735     1736         9       180.000      15.16700    2     ; C-C-C-C, prebuilt X-ca-ca-X
  1733     1734     1735     1780         9       180.000      15.16700    2     ; C-C-C-H, prebuilt X-ca-ca-X
  1733     1734     1737     1738         9       180.000       1.88280    2     ; C-C-N-C, prebuilt X-ca-n-X
  1733     1734     1737     1742         9       180.000       1.88280    2     ; C-C-N-C, prebuilt X-ca-n-X
  1734     1733     1732     1778         9       180.000      15.16700    2     ; C-C-C-H, prebuilt X-ca-ca-X
  1734     1735     1736     1781         9       180.000      15.16700    2     ; C-C-C-H, prebuilt X-ca-ca-X
  1734     1737     1738     1739         9       180.000      10.46000    2     ; C-N-C-O, prebuilt X-c-n-X
  1734     1737     1738     1740         9       180.000      10.46000    2     ; C-N-C-C, prebuilt X-c-n-X
  1734     1737     1742     1741         9       180.000      10.46000    2     ; C-N-C-C, prebuilt X-c-n-X
  1734     1737     1742     1743         9       180.000      10.46000    2     ; C-N-C-O, prebuilt X-c-n-X
  1735     1734     1733     1779         9       180.000      15.16700    2     ; C-C-C-H, prebuilt X-ca-ca-X
  1735     1734     1737     1738         9       180.000       1.88280    2     ; C-C-N-C, prebuilt X-ca-n-X
  1735     1734     1737     1742         9       180.000       1.88280    2     ; C-C-N-C, prebuilt X-ca-n-X
  1736     1731     1732     1778         9       180.000      15.16700    2     ; C-C-C-H, prebuilt X-ca-ca-X
  1736     1735     1734     1737         9       180.000      15.16700    2     ; C-C-C-N, prebuilt X-ca-ca-X
  1737     1734     1733     1779         9       180.000      15.16700    2     ; N-C-C-H, prebuilt X-ca-ca-X
  1737     1734     1735     1780         9       180.000      15.16700    2     ; N-C-C-H, prebuilt X-ca-ca-X
  1737     1738     1740     1741         9       180.000       4.18400    2     ; N-C-C-C, prebuilt X-c-ca-X
  1737     1738     1740     1747         9       180.000       4.18400    2     ; N-C-C-C, prebuilt X-c-ca-X
  1737     1742     1741     1740         9       180.000       4.18400    2     ; N-C-C-C, prebuilt X-c-ca-X
  1737     1742     1741     1744         9       180.000       4.18400    2     ; N-C-C-C, prebuilt X-c-ca-X
  1738     1737     1742     1741         9       180.000      10.46000    2     ; C-N-C-C, prebuilt X-c-n-X
  1738     1737     1742     1743         9       180.000      10.46000    2     ; C-N-C-O, prebuilt X-c-n-X
  1738     1740     1741     1742         9       180.000      15.16700    2     ; C-C-C-C, prebuilt X-ca-ca-X
  1738     1740     1741     1744         9       180.000      15.16700    2     ; C-C-C-C, prebuilt X-ca-ca-X
  1738     1740     1747     1746         9       180.000      15.16700    2     ; C-C-C-C, prebuilt X-ca-ca-X
  1738     1740     1747     1784         9       180.000      15.16700    2     ; C-C-C-H, prebuilt X-ca-ca-X
  1739     1738     1737     1742         9       180.000      10.46000    2     ; O-C-N-C, prebuilt X-c-n-X
  1739     1738     1740     1741         9       180.000       4.18400    2     ; O-C-C-C, prebuilt X-c-ca-X
  1739     1738     1740     1747         9       180.000       4.18400    2     ; O-C-C-C, prebuilt X-c-ca-X
  1740     1738     1737     1742         9       180.000      10.46000    2     ; C-C-N-C, prebuilt X-c-n-X
  1740     1741     1742     1743         9       180.000       4.18400    2     ; C-C-C-O, prebuilt X-c-ca-X
  1740     1741     1744     1745         9       180.000      15.16700    2     ; C-C-C-C, prebuilt X-ca-ca-X
  1740     1741     1744     1782         9       180.000      15.16700    2     ; C-C-C-H, prebuilt X-ca-ca-X
  1740     1747     1746     1745         9       180.000      15.16700    2     ; C-C-C-C, prebuilt X-ca-ca-X
  1740     1747     1746     1783         9       180.000      15.16700    2     ; C-C-C-H, prebuilt X-ca-ca-X
  1741     1740     1747     1746         9       180.000      15.16700    2     ; C-C-C-C, prebuilt X-ca-ca-X
  1741     1740     1747     1784         9       180.000      15.16700    2     ; C-C-C-H, prebuilt X-ca-ca-X
  1741     1744     1745     1746         9       180.000      15.16700    2     ; C-C-C-C, prebuilt X-ca-ca-X
  1741     1744     1745     1748         9       180.000      15.16700    2     ; C-C-C-H, prebuilt X-ca-ca-X
  1742     1741     1740     1747         9       180.000      15.16700    2     ; C-C-C-C, prebuilt X-ca-ca-X
  1742     1741     1744     1745         9       180.000      15.16700    2     ; C-C-C-C, prebuilt X-ca-ca-X
  1742     1741     1744     1782         9       180.000      15.16700    2     ; C-C-C-H, prebuilt X-ca-ca-X
  1743     1742     1741     1744         9       180.000       4.18400    2     ; O-C-C-C, prebuilt X-c-ca-X
  1744     1741     1740     1747         9       180.000      15.16700    2     ; C-C-C-C, prebuilt X-ca-ca-X
  1744     1745     1746     1747         9       180.000      15.16700    2     ; C-C-C-C, prebuilt X-ca-ca-X
  1744     1745     1746     1783         9       180.000      15.16700    2     ; C-C-C-H, prebuilt X-ca-ca-X
  1745     1746     1747     1784         9       180.000      15.16700    2     ; C-C-C-H, prebuilt X-ca-ca-X
  1746     1745     1744     1782         9       180.000      15.16700    2     ; C-C-C-H, prebuilt X-ca-ca-X
  1747     1746     1745     1748         9       180.000      15.16700    2     ; C-C-C-H, prebuilt X-ca-ca-X
  1748     1745     1744     1782         9       180.000      15.16700    2     ; H-C-C-H, prebuilt X-ca-ca-X
  1748     1745     1746     1783         9       180.000      15.16700    2     ; H-C-C-H, prebuilt X-ca-ca-X
  1749     1691     1690     1759         9       180.000      15.16700    2     ; C-C-C-H, prebuilt X-ca-ca-X
  1749     1691     1692     1760         9       180.000      15.16700    2     ; C-C-C-H, prebuilt X-ca-ca-X
  1750     1669     1670     1751         9       180.000      15.16700    2     ; H-C-C-H, prebuilt X-ca-ca-X
  1753     1680     1681     1754         9       180.000      15.16700    2     ; H-C-C-H, prebuilt X-ca-ca-X
  1755     1683     1684     1756         9       180.000      15.16700    2     ; H-C-C-H, prebuilt X-ca-ca-X
  1758     1689     1690     1759         9       180.000      15.16700    2     ; H-C-C-H, prebuilt X-ca-ca-X
  1762     1703     1704     1763         9       180.000      15.16700    2     ; H-C-C-H, prebuilt X-ca-ca-X
  1765     1709     1710     1766         9       180.000      15.16700    2     ; H-C-C-H, prebuilt X-ca-ca-X
  1767     1712     1713     1768         9       180.000      15.16700    2     ; H-C-C-H, prebuilt X-ca-ca-X
  1769     1716     1717     1770         9       180.000      15.16700    2     ; H-C-C-H, prebuilt X-ca-ca-X
  1770     1717     1718     1771         9       180.000      15.16700    2     ; H-C-C-H, prebuilt X-ca-ca-X
  1771     1718     1719     1772         9       180.000      15.16700    2     ; H-C-C-H, prebuilt X-ca-ca-X
  1773     1723     1724     1774         9       180.000      15.16700    2     ; H-C-C-H, prebuilt X-ca-ca-X
  1775     1726     1727     1776         9       180.000      15.16700    2     ; H-C-C-H, prebuilt X-ca-ca-X
  1778     1732     1733     1779         9       180.000      15.16700    2     ; H-C-C-H, prebuilt X-ca-ca-X
  1780     1735     1736     1781         9       180.000      15.16700    2     ; H-C-C-H, prebuilt X-ca-ca-X
  1783     1746     1747     1784         9       180.000      15.16700    2     ; H-C-C-H, prebuilt X-ca-ca-X

[ pairs ] ; Yielded based on rotatable dihedrals
;  atom_i   atom_j  functype
     1        4         1     ; H-C-C-C
     1       83         1     ; H-C-C-H
     1        6         1     ; H-C-C-C
     1       85         1     ; H-C-C-H
     2        5         1     ; C-C-C-C
     2       84         1     ; C-C-C-H
     2        8         1     ; C-C-C-C
     3        6         1     ; C-C-C-C
     3       85         1     ; C-C-C-H
     3       11         1     ; C-C-C-C
     4        7         1     ; C-C-C-C
     4        8         1     ; C-C-C-C
     4       10         1     ; C-C-C-N
     4       12         1     ; C-C-C-O
     5       83         1     ; C-C-C-H
     5       85         1     ; C-C-C-H
     5        9         1     ; C-C-C-O
     5       13         1     ; C-C-N-C
     6       84         1     ; C-C-C-H
     6       12         1     ; C-C-C-O
     6       13         1     ; C-C-N-C
     7       83         1     ; C-C-C-H
     7       11         1     ; C-C-C-C
     7        9         1     ; C-C-C-O
     7       10         1     ; C-C-C-N
     8       85         1     ; C-C-C-H
     8       12         1     ; C-N-C-O
     8       14         1     ; C-N-C-C
     8       18         1     ; C-N-C-C
     9       11         1     ; O-C-N-C
     9       13         1     ; O-C-N-C
    10       15         1     ; N-C-C-C
    10       86         1     ; N-C-C-H
    10       17         1     ; N-C-C-C
    10       89         1     ; N-C-C-H
    11       84         1     ; C-C-C-H
    11       14         1     ; C-N-C-C
    11       18         1     ; C-N-C-C
    12       13         1     ; O-C-N-C
    13       16         1     ; C-C-C-C
    13       87         1     ; C-C-C-H
    13       88         1     ; C-C-C-H
    14       17         1     ; C-C-C-C
    14       89         1     ; C-C-C-H
    14       19         1     ; C-C-C-N
    15       18         1     ; C-C-C-C
    15       88         1     ; C-C-C-H
    15       20         1     ; C-C-N-C
    15       90         1     ; C-C-N-H
    16       86         1     ; C-C-C-H
    16       89         1     ; C-C-C-H
    16       21         1     ; C-N-C-O
    16       22         1     ; C-N-C-C
    17       87         1     ; C-C-C-H
    17       20         1     ; C-C-N-C
    17       90         1     ; C-C-N-H
    18       86         1     ; C-C-C-H
    18       19         1     ; C-C-C-N
    19       87         1     ; N-C-C-H
    19       88         1     ; N-C-C-H
    19       23         1     ; N-C-C-C
    19       27         1     ; N-C-C-C
    20       24         1     ; C-C-C-C
    20       91         1     ; C-C-C-H
    20       26         1     ; C-C-C-C
    20       28         1     ; C-C-C-N
    21       90         1     ; O-C-N-H
    21       23         1     ; O-C-C-C
    21       27         1     ; O-C-C-C
    22       90         1     ; C-C-N-H
    22       25         1     ; C-C-C-C
    22       92         1     ; C-C-C-H
    22       93         1     ; C-C-C-H
    22       29         1     ; C-C-N-C
    22       33         1     ; C-C-N-C
    23       26         1     ; C-C-C-C
    23       28         1     ; C-C-C-N
    23       82         1     ; C-C-C-C
    24       27         1     ; C-C-C-C
    24       93         1     ; C-C-C-H
    24      118         1     ; C-C-C-H
    24      119         1     ; C-C-C-H
    24      120         1     ; C-C-C-H
    25       91         1     ; C-C-C-H
    25       28         1     ; C-C-C-N
    26       92         1     ; C-C-C-H
    26      118         1     ; C-C-C-H
    26      119         1     ; C-C-C-H
    26      120         1     ; C-C-C-H
    26       29         1     ; C-C-N-C
    26       33         1     ; C-C-N-C
    27       91         1     ; C-C-C-H
    27       82         1     ; C-C-C-C
    27       30         1     ; C-N-C-O
    27       31         1     ; C-N-C-C
    27       32         1     ; C-N-C-C
    27       34         1     ; C-N-C-O
    28       93         1     ; N-C-C-H
    28       38         1     ; N-C-C-C
    28       35         1     ; N-C-C-C
    29       34         1     ; C-N-C-O
    29       35         1     ; C-C-C-C
    29       37         1     ; C-C-C-C
    29       96         1     ; C-C-C-H
    30       33         1     ; O-C-N-C
    30       32         1     ; O-C-C-C
    30       38         1     ; O-C-C-C
    31       34         1     ; C-C-C-O
    31       36         1     ; C-C-C-C
    31       94         1     ; C-C-C-H
    31       95         1     ; C-C-C-H
    32       37         1     ; C-C-C-C
    32       96         1     ; C-C-C-H
    32       39         1     ; C-C-C-C
    33       38         1     ; C-C-C-C
    33       36         1     ; C-C-C-C
    33       94         1     ; C-C-C-H
    34       35         1     ; O-C-C-C
    35       38         1     ; C-C-C-C
    35       95         1     ; C-C-C-H
    35       40         1     ; C-C-C-O
    35       41         1     ; C-C-C-N
    36       96         1     ; C-C-C-H
    36       42         1     ; C-C-N-C
    36       97         1     ; C-C-N-H
    37       94         1     ; C-C-C-H
    37       40         1     ; C-C-C-O
    37       41         1     ; C-C-C-N
    38       39         1     ; C-C-C-C
    39       94         1     ; C-C-C-H
    39       95         1     ; C-C-C-H
    39       43         1     ; C-N-C-C
    39       47         1     ; C-N-C-C
    40       42         1     ; O-C-N-C
    40       97         1     ; O-C-N-H
    41       44         1     ; N-C-C-C
    41       98         1     ; N-C-C-H
    41       46         1     ; N-C-C-C
    41      101         1     ; N-C-C-H
    42       45         1     ; C-C-C-C
    42       99         1     ; C-C-C-H
    42      100         1     ; C-C-C-H
    43       97         1     ; C-C-N-H
    43       46         1     ; C-C-C-C
    43      101         1     ; C-C-C-H
    43       48         1     ; C-C-C-O
    44       47         1     ; C-C-C-C
    44      100         1     ; C-C-C-H
    44       49         1     ; C-C-O-C
    45       98         1     ; C-C-C-H
    45      101         1     ; C-C-C-H
    45       50         1     ; C-O-C-C
    45       54         1     ; C-O-C-C
    46       99         1     ; C-C-C-H
    46       49         1     ; C-C-O-C
    47       97         1     ; C-C-N-H
    47       98         1     ; C-C-C-H
    47       48         1     ; C-C-C-O
    48       99         1     ; O-C-C-H
    48      100         1     ; O-C-C-H
    48       51         1     ; O-C-C-C
    48      102         1     ; O-C-C-H
    48       53         1     ; O-C-C-C
    48       55         1     ; O-C-C-O
    49       52         1     ; C-C-C-C
    49      103         1     ; C-C-C-H
    49      105         1     ; C-C-C-H
    49       56         1     ; C-C-O-C
    50       53         1     ; C-C-C-C
    50       55         1     ; C-C-C-O
    50      104         1     ; C-C-C-H
    51       54         1     ; C-C-C-C
    51      105         1     ; C-C-C-H
    52      102         1     ; C-C-C-H
    52       55         1     ; C-C-C-O
    53      103         1     ; C-C-C-H
    53       56         1     ; C-C-O-C
    54      102         1     ; C-C-C-H
    54      104         1     ; C-C-C-H
    54       57         1     ; C-O-C-C
    54       61         1     ; C-O-C-C
    55      105         1     ; O-C-C-H
    55       58         1     ; O-C-C-C
    55      106         1     ; O-C-C-H
    55       60         1     ; O-C-C-C
    55      109         1     ; O-C-C-H
    56       59         1     ; C-C-C-C
    56      107         1     ; C-C-C-H
    56      108         1     ; C-C-C-H
    57       60         1     ; C-C-C-C
    57      109         1     ; C-C-C-H
    57       62         1     ; C-C-C-N
    58       61         1     ; C-C-C-C
    58      108         1     ; C-C-C-H
    58       63         1     ; C-C-N-C
    58      110         1     ; C-C-N-H
    59      106         1     ; C-C-C-H
    59      109         1     ; C-C-C-H
    59       64         1     ; C-N-C-O
    59       65         1     ; C-N-C-C
    60      107         1     ; C-C-C-H
    60       63         1     ; C-C-N-C
    60      110         1     ; C-C-N-H
    61      106         1     ; C-C-C-H
    61       62         1     ; C-C-C-N
    62      107         1     ; N-C-C-H
    62      108         1     ; N-C-C-H
    62       66         1     ; N-C-C-C
    62       70         1     ; N-C-C-C
    63       67         1     ; C-C-C-C
    63      111         1     ; C-C-C-H
    63       69         1     ; C-C-C-C
    63      114         1     ; C-C-C-H
    64      110         1     ; O-C-N-H
    64       66         1     ; O-C-C-C
    64       70         1     ; O-C-C-C
    65      110         1     ; C-C-N-H
    65       68         1     ; C-C-C-C
    65      112         1     ; C-C-C-H
    65      113         1     ; C-C-C-H
    66       69         1     ; C-C-C-C
    66      114         1     ; C-C-C-H
    66       71         1     ; C-C-C-N
    67       70         1     ; C-C-C-C
    67      113         1     ; C-C-C-H
    67       72         1     ; C-C-N-C
    67       76         1     ; C-C-N-C
    68      111         1     ; C-C-C-H
    68      114         1     ; C-C-C-H
    68       73         1     ; C-N-C-O
    68       74         1     ; C-N-C-C
    68       75         1     ; C-N-C-C
    68       77         1     ; C-N-C-O
    69      112         1     ; C-C-C-H
    69       72         1     ; C-C-N-C
    69       76         1     ; C-C-N-C
    70      111         1     ; C-C-C-H
    70       71         1     ; C-C-C-N
    71      112         1     ; N-C-C-H
    71      113         1     ; N-C-C-H
    71       81         1     ; N-C-C-C
    71       78         1     ; N-C-C-C
    72       77         1     ; C-N-C-O
    72       78         1     ; C-C-C-C
    72       80         1     ; C-C-C-C
    72      117         1     ; C-C-C-H
    73       76         1     ; O-C-N-C
    73       75         1     ; O-C-C-C
    73       81         1     ; O-C-C-C
    74       77         1     ; C-C-C-O
    74       79         1     ; C-C-C-C
    74      115         1     ; C-C-C-H
    74      116         1     ; C-C-C-H
    75       80         1     ; C-C-C-C
    75      117         1     ; C-C-C-H
    75      121         1     ; C-C-C-C
    76       81         1     ; C-C-C-C
    76       79         1     ; C-C-C-C
    76      115         1     ; C-C-C-H
    77       78         1     ; O-C-C-C
    78       81         1     ; C-C-C-C
    78      116         1     ; C-C-C-H
    78      122         1     ; C-C-C-C
    78      126         1     ; C-C-C-C
    79      117         1     ; C-C-C-H
    79      123         1     ; C-C-C-C
    79      202         1     ; C-C-C-H
    79      125         1     ; C-C-C-C
    79      204         1     ; C-C-C-H
    80      115         1     ; C-C-C-H
    80      122         1     ; C-C-C-C
    80      126         1     ; C-C-C-C
    81      121         1     ; C-C-C-C
    82       92         1     ; C-C-C-H
    82       93         1     ; C-C-C-H
    83       84         1     ; H-C-C-H
    86       87         1     ; H-C-C-H
    88       89         1     ; H-C-C-H
    91       92         1     ; H-C-C-H
    95       96         1     ; H-C-C-H
    98       99         1     ; H-C-C-H
   100      101         1     ; H-C-C-H
   102      103         1     ; H-C-C-H
   103      104         1     ; H-C-C-H
   104      105         1     ; H-C-C-H
   106      107         1     ; H-C-C-H
   108      109         1     ; H-C-C-H
   111      112         1     ; H-C-C-H
   113      114         1     ; H-C-C-H
   115      121         1     ; H-C-C-C
   116      121         1     ; H-C-C-C
   116      117         1     ; H-C-C-H
   121      124         1     ; C-C-C-C
   121      203         1     ; C-C-C-H
   121      127         1     ; C-C-C-C
   122      125         1     ; C-C-C-C
   122      204         1     ; C-C-C-H
   122      130         1     ; C-C-C-C
   123      126         1     ; C-C-C-C
   123      127         1     ; C-C-C-C
   123      129         1     ; C-C-C-N
   123      131         1     ; C-C-C-O
   124      202         1     ; C-C-C-H
   124      204         1     ; C-C-C-H
   124      128         1     ; C-C-C-O
   124      132         1     ; C-C-N-C
   125      203         1     ; C-C-C-H
   125      131         1     ; C-C-C-O
   125      132         1     ; C-C-N-C
   126      202         1     ; C-C-C-H
   126      130         1     ; C-C-C-C
   126      128         1     ; C-C-C-O
   126      129         1     ; C-C-C-N
   127      204         1     ; C-C-C-H
   127      131         1     ; C-N-C-O
   127      133         1     ; C-N-C-C
   127      137         1     ; C-N-C-C
   128      130         1     ; O-C-N-C
   128      132         1     ; O-C-N-C
   129      134         1     ; N-C-C-C
   129      205         1     ; N-C-C-H
   129      136         1     ; N-C-C-C
   129      208         1     ; N-C-C-H
   130      203         1     ; C-C-C-H
   130      133         1     ; C-N-C-C
   130      137         1     ; C-N-C-C
   131      132         1     ; O-C-N-C
   132      135         1     ; C-C-C-C
   132      206         1     ; C-C-C-H
   132      207         1     ; C-C-C-H
   133      136         1     ; C-C-C-C
   133      208         1     ; C-C-C-H
   133      138         1     ; C-C-C-N
   134      137         1     ; C-C-C-C
   134      207         1     ; C-C-C-H
   134      139         1     ; C-C-N-C
   134      209         1     ; C-C-N-H
   135      205         1     ; C-C-C-H
   135      208         1     ; C-C-C-H
   135      140         1     ; C-N-C-O
   135      141         1     ; C-N-C-C
   136      206         1     ; C-C-C-H
   136      139         1     ; C-C-N-C
   136      209         1     ; C-C-N-H
   137      205         1     ; C-C-C-H
   137      138         1     ; C-C-C-N
   138      206         1     ; N-C-C-H
   138      207         1     ; N-C-C-H
   138      142         1     ; N-C-C-C
   138      146         1     ; N-C-C-C
   139      143         1     ; C-C-C-C
   139      210         1     ; C-C-C-H
   139      145         1     ; C-C-C-C
   139      147         1     ; C-C-C-N
   140      209         1     ; O-C-N-H
   140      142         1     ; O-C-C-C
   140      146         1     ; O-C-C-C
   141      209         1     ; C-C-N-H
   141      144         1     ; C-C-C-C
   141      211         1     ; C-C-C-H
   141      212         1     ; C-C-C-H
   141      148         1     ; C-C-N-C
   141      152         1     ; C-C-N-C
   142      145         1     ; C-C-C-C
   142      147         1     ; C-C-C-N
   142      201         1     ; C-C-C-C
   143      146         1     ; C-C-C-C
   143      212         1     ; C-C-C-H
   143      237         1     ; C-C-C-H
   143      238         1     ; C-C-C-H
   143      239         1     ; C-C-C-H
   144      210         1     ; C-C-C-H
   144      147         1     ; C-C-C-N
   145      211         1     ; C-C-C-H
   145      237         1     ; C-C-C-H
   145      238         1     ; C-C-C-H
   145      239         1     ; C-C-C-H
   145      148         1     ; C-C-N-C
   145      152         1     ; C-C-N-C
   146      210         1     ; C-C-C-H
   146      201         1     ; C-C-C-C
   146      149         1     ; C-N-C-O
   146      150         1     ; C-N-C-C
   146      151         1     ; C-N-C-C
   146      153         1     ; C-N-C-O
   147      212         1     ; N-C-C-H
   147      157         1     ; N-C-C-C
   147      154         1     ; N-C-C-C
   148      153         1     ; C-N-C-O
   148      154         1     ; C-C-C-C
   148      156         1     ; C-C-C-C
   148      215         1     ; C-C-C-H
   149      152         1     ; O-C-N-C
   149      151         1     ; O-C-C-C
   149      157         1     ; O-C-C-C
   150      153         1     ; C-C-C-O
   150      155         1     ; C-C-C-C
   150      213         1     ; C-C-C-H
   150      214         1     ; C-C-C-H
   151      156         1     ; C-C-C-C
   151      215         1     ; C-C-C-H
   151      158         1     ; C-C-C-C
   152      157         1     ; C-C-C-C
   152      155         1     ; C-C-C-C
   152      213         1     ; C-C-C-H
   153      154         1     ; O-C-C-C
   154      157         1     ; C-C-C-C
   154      214         1     ; C-C-C-H
   154      159         1     ; C-C-C-O
   154      160         1     ; C-C-C-N
   155      215         1     ; C-C-C-H
   155      161         1     ; C-C-N-C
   155      216         1     ; C-C-N-H
   156      213         1     ; C-C-C-H
   156      159         1     ; C-C-C-O
   156      160         1     ; C-C-C-N
   157      158         1     ; C-C-C-C
   158      213         1     ; C-C-C-H
   158      214         1     ; C-C-C-H
   158      162         1     ; C-N-C-C
   158      166         1     ; C-N-C-C
   159      161         1     ; O-C-N-C
   159      216         1     ; O-C-N-H
   160      163         1     ; N-C-C-C
   160      217         1     ; N-C-C-H
   160      165         1     ; N-C-C-C
   160      220         1     ; N-C-C-H
   161      164         1     ; C-C-C-C
   161      218         1     ; C-C-C-H
   161      219         1     ; C-C-C-H
   162      216         1     ; C-C-N-H
   162      165         1     ; C-C-C-C
   162      220         1     ; C-C-C-H
   162      167         1     ; C-C-C-O
   163      166         1     ; C-C-C-C
   163      219         1     ; C-C-C-H
   163      168         1     ; C-C-O-C
   164      217         1     ; C-C-C-H
   164      220         1     ; C-C-C-H
   164      169         1     ; C-O-C-C
   164      173         1     ; C-O-C-C
   165      218         1     ; C-C-C-H
   165      168         1     ; C-C-O-C
   166      216         1     ; C-C-N-H
   166      217         1     ; C-C-C-H
   166      167         1     ; C-C-C-O
   167      218         1     ; O-C-C-H
   167      219         1     ; O-C-C-H
   167      170         1     ; O-C-C-C
   167      221         1     ; O-C-C-H
   167      172         1     ; O-C-C-C
   167      174         1     ; O-C-C-O
   168      171         1     ; C-C-C-C
   168      222         1     ; C-C-C-H
   168      224         1     ; C-C-C-H
   168      175         1     ; C-C-O-C
   169      172         1     ; C-C-C-C
   169      174         1     ; C-C-C-O
   169      223         1     ; C-C-C-H
   170      173         1     ; C-C-C-C
   170      224         1     ; C-C-C-H
   171      221         1     ; C-C-C-H
   171      174         1     ; C-C-C-O
   172      222         1     ; C-C-C-H
   172      175         1     ; C-C-O-C
   173      221         1     ; C-C-C-H
   173      223         1     ; C-C-C-H
   173      176         1     ; C-O-C-C
   173      180         1     ; C-O-C-C
   174      224         1     ; O-C-C-H
   174      177         1     ; O-C-C-C
   174      225         1     ; O-C-C-H
   174      179         1     ; O-C-C-C
   174      228         1     ; O-C-C-H
   175      178         1     ; C-C-C-C
   175      226         1     ; C-C-C-H
   175      227         1     ; C-C-C-H
   176      179         1     ; C-C-C-C
   176      228         1     ; C-C-C-H
   176      181         1     ; C-C-C-N
   177      180         1     ; C-C-C-C
   177      227         1     ; C-C-C-H
   177      182         1     ; C-C-N-C
   177      229         1     ; C-C-N-H
   178      225         1     ; C-C-C-H
   178      228         1     ; C-C-C-H
   178      183         1     ; C-N-C-O
   178      184         1     ; C-N-C-C
   179      226         1     ; C-C-C-H
   179      182         1     ; C-C-N-C
   179      229         1     ; C-C-N-H
   180      225         1     ; C-C-C-H
   180      181         1     ; C-C-C-N
   181      226         1     ; N-C-C-H
   181      227         1     ; N-C-C-H
   181      185         1     ; N-C-C-C
   181      189         1     ; N-C-C-C
   182      186         1     ; C-C-C-C
   182      230         1     ; C-C-C-H
   182      188         1     ; C-C-C-C
   182      233         1     ; C-C-C-H
   183      229         1     ; O-C-N-H
   183      185         1     ; O-C-C-C
   183      189         1     ; O-C-C-C
   184      229         1     ; C-C-N-H
   184      187         1     ; C-C-C-C
   184      231         1     ; C-C-C-H
   184      232         1     ; C-C-C-H
   185      188         1     ; C-C-C-C
   185      233         1     ; C-C-C-H
   185      190         1     ; C-C-C-N
   186      189         1     ; C-C-C-C
   186      232         1     ; C-C-C-H
   186      191         1     ; C-C-N-C
   186      195         1     ; C-C-N-C
   187      230         1     ; C-C-C-H
   187      233         1     ; C-C-C-H
   187      192         1     ; C-N-C-O
   187      193         1     ; C-N-C-C
   187      194         1     ; C-N-C-C
   187      196         1     ; C-N-C-O
   188      231         1     ; C-C-C-H
   188      191         1     ; C-C-N-C
   188      195         1     ; C-C-N-C
   189      230         1     ; C-C-C-H
   189      190         1     ; C-C-C-N
   190      231         1     ; N-C-C-H
   190      232         1     ; N-C-C-H
   190      200         1     ; N-C-C-C
   190      197         1     ; N-C-C-C
   191      196         1     ; C-N-C-O
   191      197         1     ; C-C-C-C
   191      199         1     ; C-C-C-C
   191      236         1     ; C-C-C-H
   192      195         1     ; O-C-N-C
   192      194         1     ; O-C-C-C
   192      200         1     ; O-C-C-C
   193      196         1     ; C-C-C-O
   193      198         1     ; C-C-C-C
   193      234         1     ; C-C-C-H
   193      235         1     ; C-C-C-H
   194      199         1     ; C-C-C-C
   194      236         1     ; C-C-C-H
   194      240         1     ; C-C-C-C
   195      200         1     ; C-C-C-C
   195      198         1     ; C-C-C-C
   195      234         1     ; C-C-C-H
   196      197         1     ; O-C-C-C
   197      200         1     ; C-C-C-C
   197      235         1     ; C-C-C-H
   197      241         1     ; C-C-C-C
   197      245         1     ; C-C-C-C
   198      236         1     ; C-C-C-H
   198      242         1     ; C-C-C-C
   198      321         1     ; C-C-C-H
   198      244         1     ; C-C-C-C
   198      323         1     ; C-C-C-H
   199      234         1     ; C-C-C-H
   199      241         1     ; C-C-C-C
   199      245         1     ; C-C-C-C
   200      240         1     ; C-C-C-C
   201      211         1     ; C-C-C-H
   201      212         1     ; C-C-C-H
   202      203         1     ; H-C-C-H
   205      206         1     ; H-C-C-H
   207      208         1     ; H-C-C-H
   210      211         1     ; H-C-C-H
   214      215         1     ; H-C-C-H
   217      218         1     ; H-C-C-H
   219      220         1     ; H-C-C-H
   221      222         1     ; H-C-C-H
   222      223         1     ; H-C-C-H
   223      224         1     ; H-C-C-H
   225      226         1     ; H-C-C-H
   227      228         1     ; H-C-C-H
   230      231         1     ; H-C-C-H
   232      233         1     ; H-C-C-H
   234      240         1     ; H-C-C-C
   235      240         1     ; H-C-C-C
   235      236         1     ; H-C-C-H
   240      243         1     ; C-C-C-C
   240      322         1     ; C-C-C-H
   240      246         1     ; C-C-C-C
   241      244         1     ; C-C-C-C
   241      323         1     ; C-C-C-H
   241      249         1     ; C-C-C-C
   242      245         1     ; C-C-C-C
   242      246         1     ; C-C-C-C
   242      248         1     ; C-C-C-N
   242      250         1     ; C-C-C-O
   243      321         1     ; C-C-C-H
   243      323         1     ; C-C-C-H
   243      247         1     ; C-C-C-O
   243      251         1     ; C-C-N-C
   244      322         1     ; C-C-C-H
   244      250         1     ; C-C-C-O
   244      251         1     ; C-C-N-C
   245      321         1     ; C-C-C-H
   245      249         1     ; C-C-C-C
   245      247         1     ; C-C-C-O
   245      248         1     ; C-C-C-N
   246      323         1     ; C-C-C-H
   246      250         1     ; C-N-C-O
   246      252         1     ; C-N-C-C
   246      256         1     ; C-N-C-C
   247      249         1     ; O-C-N-C
   247      251         1     ; O-C-N-C
   248      253         1     ; N-C-C-C
   248      324         1     ; N-C-C-H
   248      255         1     ; N-C-C-C
   248      327         1     ; N-C-C-H
   249      322         1     ; C-C-C-H
   249      252         1     ; C-N-C-C
   249      256         1     ; C-N-C-C
   250      251         1     ; O-C-N-C
   251      254         1     ; C-C-C-C
   251      325         1     ; C-C-C-H
   251      326         1     ; C-C-C-H
   252      255         1     ; C-C-C-C
   252      327         1     ; C-C-C-H
   252      257         1     ; C-C-C-N
   253      256         1     ; C-C-C-C
   253      326         1     ; C-C-C-H
   253      258         1     ; C-C-N-C
   253      328         1     ; C-C-N-H
   254      324         1     ; C-C-C-H
   254      327         1     ; C-C-C-H
   254      259         1     ; C-N-C-O
   254      260         1     ; C-N-C-C
   255      325         1     ; C-C-C-H
   255      258         1     ; C-C-N-C
   255      328         1     ; C-C-N-H
   256      324         1     ; C-C-C-H
   256      257         1     ; C-C-C-N
   257      325         1     ; N-C-C-H
   257      326         1     ; N-C-C-H
   257      261         1     ; N-C-C-C
   257      265         1     ; N-C-C-C
   258      262         1     ; C-C-C-C
   258      329         1     ; C-C-C-H
   258      264         1     ; C-C-C-C
   258      266         1     ; C-C-C-N
   259      328         1     ; O-C-N-H
   259      261         1     ; O-C-C-C
   259      265         1     ; O-C-C-C
   260      328         1     ; C-C-N-H
   260      263         1     ; C-C-C-C
   260      330         1     ; C-C-C-H
   260      331         1     ; C-C-C-H
   260      267         1     ; C-C-N-C
   260      271         1     ; C-C-N-C
   261      264         1     ; C-C-C-C
   261      266         1     ; C-C-C-N
   261      320         1     ; C-C-C-C
   262      265         1     ; C-C-C-C
   262      331         1     ; C-C-C-H
   262      356         1     ; C-C-C-H
   262      357         1     ; C-C-C-H
   262      358         1     ; C-C-C-H
   263      329         1     ; C-C-C-H
   263      266         1     ; C-C-C-N
   264      330         1     ; C-C-C-H
   264      356         1     ; C-C-C-H
   264      357         1     ; C-C-C-H
   264      358         1     ; C-C-C-H
   264      267         1     ; C-C-N-C
   264      271         1     ; C-C-N-C
   265      329         1     ; C-C-C-H
   265      320         1     ; C-C-C-C
   265      268         1     ; C-N-C-O
   265      269         1     ; C-N-C-C
   265      270         1     ; C-N-C-C
   265      272         1     ; C-N-C-O
   266      331         1     ; N-C-C-H
   266      276         1     ; N-C-C-C
   266      273         1     ; N-C-C-C
   267      272         1     ; C-N-C-O
   267      273         1     ; C-C-C-C
   267      275         1     ; C-C-C-C
   267      334         1     ; C-C-C-H
   268      271         1     ; O-C-N-C
   268      270         1     ; O-C-C-C
   268      276         1     ; O-C-C-C
   269      272         1     ; C-C-C-O
   269      274         1     ; C-C-C-C
   269      332         1     ; C-C-C-H
   269      333         1     ; C-C-C-H
   270      275         1     ; C-C-C-C
   270      334         1     ; C-C-C-H
   270      277         1     ; C-C-C-C
   271      276         1     ; C-C-C-C
   271      274         1     ; C-C-C-C
   271      332         1     ; C-C-C-H
   272      273         1     ; O-C-C-C
   273      276         1     ; C-C-C-C
   273      333         1     ; C-C-C-H
   273      278         1     ; C-C-C-O
   273      279         1     ; C-C-C-N
   274      334         1     ; C-C-C-H
   274      280         1     ; C-C-N-C
   274      335         1     ; C-C-N-H
   275      332         1     ; C-C-C-H
   275      278         1     ; C-C-C-O
   275      279         1     ; C-C-C-N
   276      277         1     ; C-C-C-C
   277      332         1     ; C-C-C-H
   277      333         1     ; C-C-C-H
   277      281         1     ; C-N-C-C
   277      285         1     ; C-N-C-C
   278      280         1     ; O-C-N-C
   278      335         1     ; O-C-N-H
   279      282         1     ; N-C-C-C
   279      336         1     ; N-C-C-H
   279      284         1     ; N-C-C-C
   279      339         1     ; N-C-C-H
   280      283         1     ; C-C-C-C
   280      337         1     ; C-C-C-H
   280      338         1     ; C-C-C-H
   281      335         1     ; C-C-N-H
   281      284         1     ; C-C-C-C
   281      339         1     ; C-C-C-H
   281      286         1     ; C-C-C-O
   282      285         1     ; C-C-C-C
   282      338         1     ; C-C-C-H
   282      287         1     ; C-C-O-C
   283      336         1     ; C-C-C-H
   283      339         1     ; C-C-C-H
   283      288         1     ; C-O-C-C
   283      292         1     ; C-O-C-C
   284      337         1     ; C-C-C-H
   284      287         1     ; C-C-O-C
   285      335         1     ; C-C-N-H
   285      336         1     ; C-C-C-H
   285      286         1     ; C-C-C-O
   286      337         1     ; O-C-C-H
   286      338         1     ; O-C-C-H
   286      289         1     ; O-C-C-C
   286      340         1     ; O-C-C-H
   286      291         1     ; O-C-C-C
   286      293         1     ; O-C-C-O
   287      290         1     ; C-C-C-C
   287      341         1     ; C-C-C-H
   287      343         1     ; C-C-C-H
   287      294         1     ; C-C-O-C
   288      291         1     ; C-C-C-C
   288      293         1     ; C-C-C-O
   288      342         1     ; C-C-C-H
   289      292         1     ; C-C-C-C
   289      343         1     ; C-C-C-H
   290      340         1     ; C-C-C-H
   290      293         1     ; C-C-C-O
   291      341         1     ; C-C-C-H
   291      294         1     ; C-C-O-C
   292      340         1     ; C-C-C-H
   292      342         1     ; C-C-C-H
   292      295         1     ; C-O-C-C
   292      299         1     ; C-O-C-C
   293      343         1     ; O-C-C-H
   293      296         1     ; O-C-C-C
   293      344         1     ; O-C-C-H
   293      298         1     ; O-C-C-C
   293      347         1     ; O-C-C-H
   294      297         1     ; C-C-C-C
   294      345         1     ; C-C-C-H
   294      346         1     ; C-C-C-H
   295      298         1     ; C-C-C-C
   295      347         1     ; C-C-C-H
   295      300         1     ; C-C-C-N
   296      299         1     ; C-C-C-C
   296      346         1     ; C-C-C-H
   296      301         1     ; C-C-N-C
   296      348         1     ; C-C-N-H
   297      344         1     ; C-C-C-H
   297      347         1     ; C-C-C-H
   297      302         1     ; C-N-C-O
   297      303         1     ; C-N-C-C
   298      345         1     ; C-C-C-H
   298      301         1     ; C-C-N-C
   298      348         1     ; C-C-N-H
   299      344         1     ; C-C-C-H
   299      300         1     ; C-C-C-N
   300      345         1     ; N-C-C-H
   300      346         1     ; N-C-C-H
   300      304         1     ; N-C-C-C
   300      308         1     ; N-C-C-C
   301      305         1     ; C-C-C-C
   301      349         1     ; C-C-C-H
   301      307         1     ; C-C-C-C
   301      352         1     ; C-C-C-H
   302      348         1     ; O-C-N-H
   302      304         1     ; O-C-C-C
   302      308         1     ; O-C-C-C
   303      348         1     ; C-C-N-H
   303      306         1     ; C-C-C-C
   303      350         1     ; C-C-C-H
   303      351         1     ; C-C-C-H
   304      307         1     ; C-C-C-C
   304      352         1     ; C-C-C-H
   304      309         1     ; C-C-C-N
   305      308         1     ; C-C-C-C
   305      351         1     ; C-C-C-H
   305      310         1     ; C-C-N-C
   305      314         1     ; C-C-N-C
   306      349         1     ; C-C-C-H
   306      352         1     ; C-C-C-H
   306      311         1     ; C-N-C-O
   306      312         1     ; C-N-C-C
   306      313         1     ; C-N-C-C
   306      315         1     ; C-N-C-O
   307      350         1     ; C-C-C-H
   307      310         1     ; C-C-N-C
   307      314         1     ; C-C-N-C
   308      349         1     ; C-C-C-H
   308      309         1     ; C-C-C-N
   309      350         1     ; N-C-C-H
   309      351         1     ; N-C-C-H
   309      319         1     ; N-C-C-C
   309      316         1     ; N-C-C-C
   310      315         1     ; C-N-C-O
   310      316         1     ; C-C-C-C
   310      318         1     ; C-C-C-C
   310      355         1     ; C-C-C-H
   311      314         1     ; O-C-N-C
   311      313         1     ; O-C-C-C
   311      319         1     ; O-C-C-C
   312      315         1     ; C-C-C-O
   312      317         1     ; C-C-C-C
   312      353         1     ; C-C-C-H
   312      354         1     ; C-C-C-H
   313      318         1     ; C-C-C-C
   313      355         1     ; C-C-C-H
   313      359         1     ; C-C-C-C
   314      319         1     ; C-C-C-C
   314      317         1     ; C-C-C-C
   314      353         1     ; C-C-C-H
   315      316         1     ; O-C-C-C
   316      319         1     ; C-C-C-C
   316      354         1     ; C-C-C-H
   316      360         1     ; C-C-C-C
   316      364         1     ; C-C-C-C
   317      355         1     ; C-C-C-H
   317      361         1     ; C-C-C-C
   317      440         1     ; C-C-C-H
   317      363         1     ; C-C-C-C
   317      442         1     ; C-C-C-H
   318      353         1     ; C-C-C-H
   318      360         1     ; C-C-C-C
   318      364         1     ; C-C-C-C
   319      359         1     ; C-C-C-C
   320      330         1     ; C-C-C-H
   320      331         1     ; C-C-C-H
   321      322         1     ; H-C-C-H
   324      325         1     ; H-C-C-H
   326      327         1     ; H-C-C-H
   329      330         1     ; H-C-C-H
   333      334         1     ; H-C-C-H
   336      337         1     ; H-C-C-H
   338      339         1     ; H-C-C-H
   340      341         1     ; H-C-C-H
   341      342         1     ; H-C-C-H
   342      343         1     ; H-C-C-H
   344      345         1     ; H-C-C-H
   346      347         1     ; H-C-C-H
   349      350         1     ; H-C-C-H
   351      352         1     ; H-C-C-H
   353      359         1     ; H-C-C-C
   354      359         1     ; H-C-C-C
   354      355         1     ; H-C-C-H
   359      362         1     ; C-C-C-C
   359      441         1     ; C-C-C-H
   359      365         1     ; C-C-C-C
   360      363         1     ; C-C-C-C
   360      442         1     ; C-C-C-H
   360      368         1     ; C-C-C-C
   361      364         1     ; C-C-C-C
   361      365         1     ; C-C-C-C
   361      367         1     ; C-C-C-N
   361      369         1     ; C-C-C-O
   362      440         1     ; C-C-C-H
   362      442         1     ; C-C-C-H
   362      366         1     ; C-C-C-O
   362      370         1     ; C-C-N-C
   363      441         1     ; C-C-C-H
   363      369         1     ; C-C-C-O
   363      370         1     ; C-C-N-C
   364      440         1     ; C-C-C-H
   364      368         1     ; C-C-C-C
   364      366         1     ; C-C-C-O
   364      367         1     ; C-C-C-N
   365      442         1     ; C-C-C-H
   365      369         1     ; C-N-C-O
   365      371         1     ; C-N-C-C
   365      375         1     ; C-N-C-C
   366      368         1     ; O-C-N-C
   366      370         1     ; O-C-N-C
   367      372         1     ; N-C-C-C
   367      443         1     ; N-C-C-H
   367      374         1     ; N-C-C-C
   367      446         1     ; N-C-C-H
   368      441         1     ; C-C-C-H
   368      371         1     ; C-N-C-C
   368      375         1     ; C-N-C-C
   369      370         1     ; O-C-N-C
   370      373         1     ; C-C-C-C
   370      444         1     ; C-C-C-H
   370      445         1     ; C-C-C-H
   371      374         1     ; C-C-C-C
   371      446         1     ; C-C-C-H
   371      376         1     ; C-C-C-N
   372      375         1     ; C-C-C-C
   372      445         1     ; C-C-C-H
   372      377         1     ; C-C-N-C
   372      447         1     ; C-C-N-H
   373      443         1     ; C-C-C-H
   373      446         1     ; C-C-C-H
   373      378         1     ; C-N-C-O
   373      379         1     ; C-N-C-C
   374      444         1     ; C-C-C-H
   374      377         1     ; C-C-N-C
   374      447         1     ; C-C-N-H
   375      443         1     ; C-C-C-H
   375      376         1     ; C-C-C-N
   376      444         1     ; N-C-C-H
   376      445         1     ; N-C-C-H
   376      380         1     ; N-C-C-C
   376      384         1     ; N-C-C-C
   377      381         1     ; C-C-C-C
   377      448         1     ; C-C-C-H
   377      383         1     ; C-C-C-C
   377      385         1     ; C-C-C-N
   378      447         1     ; O-C-N-H
   378      380         1     ; O-C-C-C
   378      384         1     ; O-C-C-C
   379      447         1     ; C-C-N-H
   379      382         1     ; C-C-C-C
   379      449         1     ; C-C-C-H
   379      450         1     ; C-C-C-H
   379      386         1     ; C-C-N-C
   379      390         1     ; C-C-N-C
   380      383         1     ; C-C-C-C
   380      385         1     ; C-C-C-N
   380      439         1     ; C-C-C-C
   381      384         1     ; C-C-C-C
   381      450         1     ; C-C-C-H
   381      475         1     ; C-C-C-H
   381      476         1     ; C-C-C-H
   381      477         1     ; C-C-C-H
   382      448         1     ; C-C-C-H
   382      385         1     ; C-C-C-N
   383      449         1     ; C-C-C-H
   383      475         1     ; C-C-C-H
   383      476         1     ; C-C-C-H
   383      477         1     ; C-C-C-H
   383      386         1     ; C-C-N-C
   383      390         1     ; C-C-N-C
   384      448         1     ; C-C-C-H
   384      439         1     ; C-C-C-C
   384      387         1     ; C-N-C-O
   384      388         1     ; C-N-C-C
   384      389         1     ; C-N-C-C
   384      391         1     ; C-N-C-O
   385      450         1     ; N-C-C-H
   385      395         1     ; N-C-C-C
   385      392         1     ; N-C-C-C
   386      391         1     ; C-N-C-O
   386      392         1     ; C-C-C-C
   386      394         1     ; C-C-C-C
   386      453         1     ; C-C-C-H
   387      390         1     ; O-C-N-C
   387      389         1     ; O-C-C-C
   387      395         1     ; O-C-C-C
   388      391         1     ; C-C-C-O
   388      393         1     ; C-C-C-C
   388      451         1     ; C-C-C-H
   388      452         1     ; C-C-C-H
   389      394         1     ; C-C-C-C
   389      453         1     ; C-C-C-H
   389      396         1     ; C-C-C-C
   390      395         1     ; C-C-C-C
   390      393         1     ; C-C-C-C
   390      451         1     ; C-C-C-H
   391      392         1     ; O-C-C-C
   392      395         1     ; C-C-C-C
   392      452         1     ; C-C-C-H
   392      397         1     ; C-C-C-O
   392      398         1     ; C-C-C-N
   393      453         1     ; C-C-C-H
   393      399         1     ; C-C-N-C
   393      454         1     ; C-C-N-H
   394      451         1     ; C-C-C-H
   394      397         1     ; C-C-C-O
   394      398         1     ; C-C-C-N
   395      396         1     ; C-C-C-C
   396      451         1     ; C-C-C-H
   396      452         1     ; C-C-C-H
   396      400         1     ; C-N-C-C
   396      404         1     ; C-N-C-C
   397      399         1     ; O-C-N-C
   397      454         1     ; O-C-N-H
   398      401         1     ; N-C-C-C
   398      455         1     ; N-C-C-H
   398      403         1     ; N-C-C-C
   398      458         1     ; N-C-C-H
   399      402         1     ; C-C-C-C
   399      456         1     ; C-C-C-H
   399      457         1     ; C-C-C-H
   400      454         1     ; C-C-N-H
   400      403         1     ; C-C-C-C
   400      458         1     ; C-C-C-H
   400      405         1     ; C-C-C-O
   401      404         1     ; C-C-C-C
   401      457         1     ; C-C-C-H
   401      406         1     ; C-C-O-C
   402      455         1     ; C-C-C-H
   402      458         1     ; C-C-C-H
   402      407         1     ; C-O-C-C
   402      411         1     ; C-O-C-C
   403      456         1     ; C-C-C-H
   403      406         1     ; C-C-O-C
   404      454         1     ; C-C-N-H
   404      455         1     ; C-C-C-H
   404      405         1     ; C-C-C-O
   405      456         1     ; O-C-C-H
   405      457         1     ; O-C-C-H
   405      408         1     ; O-C-C-C
   405      459         1     ; O-C-C-H
   405      410         1     ; O-C-C-C
   405      412         1     ; O-C-C-O
   406      409         1     ; C-C-C-C
   406      460         1     ; C-C-C-H
   406      462         1     ; C-C-C-H
   406      413         1     ; C-C-O-C
   407      410         1     ; C-C-C-C
   407      412         1     ; C-C-C-O
   407      461         1     ; C-C-C-H
   408      411         1     ; C-C-C-C
   408      462         1     ; C-C-C-H
   409      459         1     ; C-C-C-H
   409      412         1     ; C-C-C-O
   410      460         1     ; C-C-C-H
   410      413         1     ; C-C-O-C
   411      459         1     ; C-C-C-H
   411      461         1     ; C-C-C-H
   411      414         1     ; C-O-C-C
   411      418         1     ; C-O-C-C
   412      462         1     ; O-C-C-H
   412      415         1     ; O-C-C-C
   412      463         1     ; O-C-C-H
   412      417         1     ; O-C-C-C
   412      466         1     ; O-C-C-H
   413      416         1     ; C-C-C-C
   413      464         1     ; C-C-C-H
   413      465         1     ; C-C-C-H
   414      417         1     ; C-C-C-C
   414      466         1     ; C-C-C-H
   414      419         1     ; C-C-C-N
   415      418         1     ; C-C-C-C
   415      465         1     ; C-C-C-H
   415      420         1     ; C-C-N-C
   415      467         1     ; C-C-N-H
   416      463         1     ; C-C-C-H
   416      466         1     ; C-C-C-H
   416      421         1     ; C-N-C-O
   416      422         1     ; C-N-C-C
   417      464         1     ; C-C-C-H
   417      420         1     ; C-C-N-C
   417      467         1     ; C-C-N-H
   418      463         1     ; C-C-C-H
   418      419         1     ; C-C-C-N
   419      464         1     ; N-C-C-H
   419      465         1     ; N-C-C-H
   419      423         1     ; N-C-C-C
   419      427         1     ; N-C-C-C
   420      424         1     ; C-C-C-C
   420      468         1     ; C-C-C-H
   420      426         1     ; C-C-C-C
   420      471         1     ; C-C-C-H
   421      467         1     ; O-C-N-H
   421      423         1     ; O-C-C-C
   421      427         1     ; O-C-C-C
   422      467         1     ; C-C-N-H
   422      425         1     ; C-C-C-C
   422      469         1     ; C-C-C-H
   422      470         1     ; C-C-C-H
   423      426         1     ; C-C-C-C
   423      471         1     ; C-C-C-H
   423      428         1     ; C-C-C-N
   424      427         1     ; C-C-C-C
   424      470         1     ; C-C-C-H
   424      429         1     ; C-C-N-C
   424      433         1     ; C-C-N-C
   425      468         1     ; C-C-C-H
   425      471         1     ; C-C-C-H
   425      430         1     ; C-N-C-O
   425      431         1     ; C-N-C-C
   425      432         1     ; C-N-C-C
   425      434         1     ; C-N-C-O
   426      469         1     ; C-C-C-H
   426      429         1     ; C-C-N-C
   426      433         1     ; C-C-N-C
   427      468         1     ; C-C-C-H
   427      428         1     ; C-C-C-N
   428      469         1     ; N-C-C-H
   428      470         1     ; N-C-C-H
   428      438         1     ; N-C-C-C
   428      435         1     ; N-C-C-C
   429      434         1     ; C-N-C-O
   429      435         1     ; C-C-C-C
   429      437         1     ; C-C-C-C
   429      474         1     ; C-C-C-H
   430      433         1     ; O-C-N-C
   430      432         1     ; O-C-C-C
   430      438         1     ; O-C-C-C
   431      434         1     ; C-C-C-O
   431      436         1     ; C-C-C-C
   431      472         1     ; C-C-C-H
   431      473         1     ; C-C-C-H
   432      437         1     ; C-C-C-C
   432      474         1     ; C-C-C-H
   432      478         1     ; C-C-C-C
   433      438         1     ; C-C-C-C
   433      436         1     ; C-C-C-C
   433      472         1     ; C-C-C-H
   434      435         1     ; O-C-C-C
   435      438         1     ; C-C-C-C
   435      473         1     ; C-C-C-H
   435      479         1     ; C-C-C-C
   435      483         1     ; C-C-C-C
   436      474         1     ; C-C-C-H
   436      480         1     ; C-C-C-C
   436      559         1     ; C-C-C-H
   436      482         1     ; C-C-C-C
   436      561         1     ; C-C-C-H
   437      472         1     ; C-C-C-H
   437      479         1     ; C-C-C-C
   437      483         1     ; C-C-C-C
   438      478         1     ; C-C-C-C
   439      449         1     ; C-C-C-H
   439      450         1     ; C-C-C-H
   440      441         1     ; H-C-C-H
   443      444         1     ; H-C-C-H
   445      446         1     ; H-C-C-H
   448      449         1     ; H-C-C-H
   452      453         1     ; H-C-C-H
   455      456         1     ; H-C-C-H
   457      458         1     ; H-C-C-H
   459      460         1     ; H-C-C-H
   460      461         1     ; H-C-C-H
   461      462         1     ; H-C-C-H
   463      464         1     ; H-C-C-H
   465      466         1     ; H-C-C-H
   468      469         1     ; H-C-C-H
   470      471         1     ; H-C-C-H
   472      478         1     ; H-C-C-C
   473      478         1     ; H-C-C-C
   473      474         1     ; H-C-C-H
   478      481         1     ; C-C-C-C
   478      560         1     ; C-C-C-H
   478      484         1     ; C-C-C-C
   479      482         1     ; C-C-C-C
   479      561         1     ; C-C-C-H
   479      487         1     ; C-C-C-C
   480      483         1     ; C-C-C-C
   480      484         1     ; C-C-C-C
   480      486         1     ; C-C-C-N
   480      488         1     ; C-C-C-O
   481      559         1     ; C-C-C-H
   481      561         1     ; C-C-C-H
   481      485         1     ; C-C-C-O
   481      489         1     ; C-C-N-C
   482      560         1     ; C-C-C-H
   482      488         1     ; C-C-C-O
   482      489         1     ; C-C-N-C
   483      559         1     ; C-C-C-H
   483      487         1     ; C-C-C-C
   483      485         1     ; C-C-C-O
   483      486         1     ; C-C-C-N
   484      561         1     ; C-C-C-H
   484      488         1     ; C-N-C-O
   484      490         1     ; C-N-C-C
   484      494         1     ; C-N-C-C
   485      487         1     ; O-C-N-C
   485      489         1     ; O-C-N-C
   486      491         1     ; N-C-C-C
   486      562         1     ; N-C-C-H
   486      493         1     ; N-C-C-C
   486      565         1     ; N-C-C-H
   487      560         1     ; C-C-C-H
   487      490         1     ; C-N-C-C
   487      494         1     ; C-N-C-C
   488      489         1     ; O-C-N-C
   489      492         1     ; C-C-C-C
   489      563         1     ; C-C-C-H
   489      564         1     ; C-C-C-H
   490      493         1     ; C-C-C-C
   490      565         1     ; C-C-C-H
   490      495         1     ; C-C-C-N
   491      494         1     ; C-C-C-C
   491      564         1     ; C-C-C-H
   491      496         1     ; C-C-N-C
   491      566         1     ; C-C-N-H
   492      562         1     ; C-C-C-H
   492      565         1     ; C-C-C-H
   492      497         1     ; C-N-C-O
   492      498         1     ; C-N-C-C
   493      563         1     ; C-C-C-H
   493      496         1     ; C-C-N-C
   493      566         1     ; C-C-N-H
   494      562         1     ; C-C-C-H
   494      495         1     ; C-C-C-N
   495      563         1     ; N-C-C-H
   495      564         1     ; N-C-C-H
   495      499         1     ; N-C-C-C
   495      503         1     ; N-C-C-C
   496      500         1     ; C-C-C-C
   496      567         1     ; C-C-C-H
   496      502         1     ; C-C-C-C
   496      504         1     ; C-C-C-N
   497      566         1     ; O-C-N-H
   497      499         1     ; O-C-C-C
   497      503         1     ; O-C-C-C
   498      566         1     ; C-C-N-H
   498      501         1     ; C-C-C-C
   498      568         1     ; C-C-C-H
   498      569         1     ; C-C-C-H
   498      505         1     ; C-C-N-C
   498      509         1     ; C-C-N-C
   499      502         1     ; C-C-C-C
   499      504         1     ; C-C-C-N
   499      558         1     ; C-C-C-C
   500      503         1     ; C-C-C-C
   500      569         1     ; C-C-C-H
   500      594         1     ; C-C-C-H
   500      595         1     ; C-C-C-H
   500      596         1     ; C-C-C-H
   501      567         1     ; C-C-C-H
   501      504         1     ; C-C-C-N
   502      568         1     ; C-C-C-H
   502      594         1     ; C-C-C-H
   502      595         1     ; C-C-C-H
   502      596         1     ; C-C-C-H
   502      505         1     ; C-C-N-C
   502      509         1     ; C-C-N-C
   503      567         1     ; C-C-C-H
   503      558         1     ; C-C-C-C
   503      506         1     ; C-N-C-O
   503      507         1     ; C-N-C-C
   503      508         1     ; C-N-C-C
   503      510         1     ; C-N-C-O
   504      569         1     ; N-C-C-H
   504      514         1     ; N-C-C-C
   504      511         1     ; N-C-C-C
   505      510         1     ; C-N-C-O
   505      511         1     ; C-C-C-C
   505      513         1     ; C-C-C-C
   505      572         1     ; C-C-C-H
   506      509         1     ; O-C-N-C
   506      508         1     ; O-C-C-C
   506      514         1     ; O-C-C-C
   507      510         1     ; C-C-C-O
   507      512         1     ; C-C-C-C
   507      570         1     ; C-C-C-H
   507      571         1     ; C-C-C-H
   508      513         1     ; C-C-C-C
   508      572         1     ; C-C-C-H
   508      515         1     ; C-C-C-C
   509      514         1     ; C-C-C-C
   509      512         1     ; C-C-C-C
   509      570         1     ; C-C-C-H
   510      511         1     ; O-C-C-C
   511      514         1     ; C-C-C-C
   511      571         1     ; C-C-C-H
   511      516         1     ; C-C-C-O
   511      517         1     ; C-C-C-N
   512      572         1     ; C-C-C-H
   512      518         1     ; C-C-N-C
   512      573         1     ; C-C-N-H
   513      570         1     ; C-C-C-H
   513      516         1     ; C-C-C-O
   513      517         1     ; C-C-C-N
   514      515         1     ; C-C-C-C
   515      570         1     ; C-C-C-H
   515      571         1     ; C-C-C-H
   515      519         1     ; C-N-C-C
   515      523         1     ; C-N-C-C
   516      518         1     ; O-C-N-C
   516      573         1     ; O-C-N-H
   517      520         1     ; N-C-C-C
   517      574         1     ; N-C-C-H
   517      522         1     ; N-C-C-C
   517      577         1     ; N-C-C-H
   518      521         1     ; C-C-C-C
   518      575         1     ; C-C-C-H
   518      576         1     ; C-C-C-H
   519      573         1     ; C-C-N-H
   519      522         1     ; C-C-C-C
   519      577         1     ; C-C-C-H
   519      524         1     ; C-C-C-O
   520      523         1     ; C-C-C-C
   520      576         1     ; C-C-C-H
   520      525         1     ; C-C-O-C
   521      574         1     ; C-C-C-H
   521      577         1     ; C-C-C-H
   521      526         1     ; C-O-C-C
   521      530         1     ; C-O-C-C
   522      575         1     ; C-C-C-H
   522      525         1     ; C-C-O-C
   523      573         1     ; C-C-N-H
   523      574         1     ; C-C-C-H
   523      524         1     ; C-C-C-O
   524      575         1     ; O-C-C-H
   524      576         1     ; O-C-C-H
   524      527         1     ; O-C-C-C
   524      578         1     ; O-C-C-H
   524      529         1     ; O-C-C-C
   524      531         1     ; O-C-C-O
   525      528         1     ; C-C-C-C
   525      579         1     ; C-C-C-H
   525      581         1     ; C-C-C-H
   525      532         1     ; C-C-O-C
   526      529         1     ; C-C-C-C
   526      531         1     ; C-C-C-O
   526      580         1     ; C-C-C-H
   527      530         1     ; C-C-C-C
   527      581         1     ; C-C-C-H
   528      578         1     ; C-C-C-H
   528      531         1     ; C-C-C-O
   529      579         1     ; C-C-C-H
   529      532         1     ; C-C-O-C
   530      578         1     ; C-C-C-H
   530      580         1     ; C-C-C-H
   530      533         1     ; C-O-C-C
   530      537         1     ; C-O-C-C
   531      581         1     ; O-C-C-H
   531      534         1     ; O-C-C-C
   531      582         1     ; O-C-C-H
   531      536         1     ; O-C-C-C
   531      585         1     ; O-C-C-H
   532      535         1     ; C-C-C-C
   532      583         1     ; C-C-C-H
   532      584         1     ; C-C-C-H
   533      536         1     ; C-C-C-C
   533      585         1     ; C-C-C-H
   533      538         1     ; C-C-C-N
   534      537         1     ; C-C-C-C
   534      584         1     ; C-C-C-H
   534      539         1     ; C-C-N-C
   534      586         1     ; C-C-N-H
   535      582         1     ; C-C-C-H
   535      585         1     ; C-C-C-H
   535      540         1     ; C-N-C-O
   535      541         1     ; C-N-C-C
   536      583         1     ; C-C-C-H
   536      539         1     ; C-C-N-C
   536      586         1     ; C-C-N-H
   537      582         1     ; C-C-C-H
   537      538         1     ; C-C-C-N
   538      583         1     ; N-C-C-H
   538      584         1     ; N-C-C-H
   538      542         1     ; N-C-C-C
   538      546         1     ; N-C-C-C
   539      543         1     ; C-C-C-C
   539      587         1     ; C-C-C-H
   539      545         1     ; C-C-C-C
   539      590         1     ; C-C-C-H
   540      586         1     ; O-C-N-H
   540      542         1     ; O-C-C-C
   540      546         1     ; O-C-C-C
   541      586         1     ; C-C-N-H
   541      544         1     ; C-C-C-C
   541      588         1     ; C-C-C-H
   541      589         1     ; C-C-C-H
   542      545         1     ; C-C-C-C
   542      590         1     ; C-C-C-H
   542      547         1     ; C-C-C-N
   543      546         1     ; C-C-C-C
   543      589         1     ; C-C-C-H
   543      548         1     ; C-C-N-C
   543      552         1     ; C-C-N-C
   544      587         1     ; C-C-C-H
   544      590         1     ; C-C-C-H
   544      549         1     ; C-N-C-O
   544      550         1     ; C-N-C-C
   544      551         1     ; C-N-C-C
   544      553         1     ; C-N-C-O
   545      588         1     ; C-C-C-H
   545      548         1     ; C-C-N-C
   545      552         1     ; C-C-N-C
   546      587         1     ; C-C-C-H
   546      547         1     ; C-C-C-N
   547      588         1     ; N-C-C-H
   547      589         1     ; N-C-C-H
   547      557         1     ; N-C-C-C
   547      554         1     ; N-C-C-C
   548      553         1     ; C-N-C-O
   548      554         1     ; C-C-C-C
   548      556         1     ; C-C-C-C
   548      593         1     ; C-C-C-H
   549      552         1     ; O-C-N-C
   549      551         1     ; O-C-C-C
   549      557         1     ; O-C-C-C
   550      553         1     ; C-C-C-O
   550      555         1     ; C-C-C-C
   550      591         1     ; C-C-C-H
   550      592         1     ; C-C-C-H
   551      556         1     ; C-C-C-C
   551      593         1     ; C-C-C-H
   551      597         1     ; C-C-C-C
   552      557         1     ; C-C-C-C
   552      555         1     ; C-C-C-C
   552      591         1     ; C-C-C-H
   553      554         1     ; O-C-C-C
   554      557         1     ; C-C-C-C
   554      592         1     ; C-C-C-H
   554      598         1     ; C-C-C-C
   554      602         1     ; C-C-C-C
   555      593         1     ; C-C-C-H
   555      599         1     ; C-C-C-C
   555      678         1     ; C-C-C-H
   555      601         1     ; C-C-C-C
   555      680         1     ; C-C-C-H
   556      591         1     ; C-C-C-H
   556      598         1     ; C-C-C-C
   556      602         1     ; C-C-C-C
   557      597         1     ; C-C-C-C
   558      568         1     ; C-C-C-H
   558      569         1     ; C-C-C-H
   559      560         1     ; H-C-C-H
   562      563         1     ; H-C-C-H
   564      565         1     ; H-C-C-H
   567      568         1     ; H-C-C-H
   571      572         1     ; H-C-C-H
   574      575         1     ; H-C-C-H
   576      577         1     ; H-C-C-H
   578      579         1     ; H-C-C-H
   579      580         1     ; H-C-C-H
   580      581         1     ; H-C-C-H
   582      583         1     ; H-C-C-H
   584      585         1     ; H-C-C-H
   587      588         1     ; H-C-C-H
   589      590         1     ; H-C-C-H
   591      597         1     ; H-C-C-C
   592      597         1     ; H-C-C-C
   592      593         1     ; H-C-C-H
   597      600         1     ; C-C-C-C
   597      679         1     ; C-C-C-H
   597      603         1     ; C-C-C-C
   598      601         1     ; C-C-C-C
   598      680         1     ; C-C-C-H
   598      606         1     ; C-C-C-C
   599      602         1     ; C-C-C-C
   599      603         1     ; C-C-C-C
   599      605         1     ; C-C-C-N
   599      607         1     ; C-C-C-O
   600      678         1     ; C-C-C-H
   600      680         1     ; C-C-C-H
   600      604         1     ; C-C-C-O
   600      608         1     ; C-C-N-C
   601      679         1     ; C-C-C-H
   601      607         1     ; C-C-C-O
   601      608         1     ; C-C-N-C
   602      678         1     ; C-C-C-H
   602      606         1     ; C-C-C-C
   602      604         1     ; C-C-C-O
   602      605         1     ; C-C-C-N
   603      680         1     ; C-C-C-H
   603      607         1     ; C-N-C-O
   603      609         1     ; C-N-C-C
   603      613         1     ; C-N-C-C
   604      606         1     ; O-C-N-C
   604      608         1     ; O-C-N-C
   605      610         1     ; N-C-C-C
   605      681         1     ; N-C-C-H
   605      612         1     ; N-C-C-C
   605      684         1     ; N-C-C-H
   606      679         1     ; C-C-C-H
   606      609         1     ; C-N-C-C
   606      613         1     ; C-N-C-C
   607      608         1     ; O-C-N-C
   608      611         1     ; C-C-C-C
   608      682         1     ; C-C-C-H
   608      683         1     ; C-C-C-H
   609      612         1     ; C-C-C-C
   609      684         1     ; C-C-C-H
   609      614         1     ; C-C-C-N
   610      613         1     ; C-C-C-C
   610      683         1     ; C-C-C-H
   610      615         1     ; C-C-N-C
   610      685         1     ; C-C-N-H
   611      681         1     ; C-C-C-H
   611      684         1     ; C-C-C-H
   611      616         1     ; C-N-C-O
   611      617         1     ; C-N-C-C
   612      682         1     ; C-C-C-H
   612      615         1     ; C-C-N-C
   612      685         1     ; C-C-N-H
   613      681         1     ; C-C-C-H
   613      614         1     ; C-C-C-N
   614      682         1     ; N-C-C-H
   614      683         1     ; N-C-C-H
   614      618         1     ; N-C-C-C
   614      622         1     ; N-C-C-C
   615      619         1     ; C-C-C-C
   615      686         1     ; C-C-C-H
   615      621         1     ; C-C-C-C
   615      623         1     ; C-C-C-N
   616      685         1     ; O-C-N-H
   616      618         1     ; O-C-C-C
   616      622         1     ; O-C-C-C
   617      685         1     ; C-C-N-H
   617      620         1     ; C-C-C-C
   617      687         1     ; C-C-C-H
   617      688         1     ; C-C-C-H
   617      624         1     ; C-C-N-C
   617      628         1     ; C-C-N-C
   618      621         1     ; C-C-C-C
   618      623         1     ; C-C-C-N
   618      677         1     ; C-C-C-C
   619      622         1     ; C-C-C-C
   619      688         1     ; C-C-C-H
   619      713         1     ; C-C-C-H
   619      714         1     ; C-C-C-H
   619      715         1     ; C-C-C-H
   620      686         1     ; C-C-C-H
   620      623         1     ; C-C-C-N
   621      687         1     ; C-C-C-H
   621      713         1     ; C-C-C-H
   621      714         1     ; C-C-C-H
   621      715         1     ; C-C-C-H
   621      624         1     ; C-C-N-C
   621      628         1     ; C-C-N-C
   622      686         1     ; C-C-C-H
   622      677         1     ; C-C-C-C
   622      625         1     ; C-N-C-O
   622      626         1     ; C-N-C-C
   622      627         1     ; C-N-C-C
   622      629         1     ; C-N-C-O
   623      688         1     ; N-C-C-H
   623      633         1     ; N-C-C-C
   623      630         1     ; N-C-C-C
   624      629         1     ; C-N-C-O
   624      630         1     ; C-C-C-C
   624      632         1     ; C-C-C-C
   624      691         1     ; C-C-C-H
   625      628         1     ; O-C-N-C
   625      627         1     ; O-C-C-C
   625      633         1     ; O-C-C-C
   626      629         1     ; C-C-C-O
   626      631         1     ; C-C-C-C
   626      689         1     ; C-C-C-H
   626      690         1     ; C-C-C-H
   627      632         1     ; C-C-C-C
   627      691         1     ; C-C-C-H
   627      634         1     ; C-C-C-C
   628      633         1     ; C-C-C-C
   628      631         1     ; C-C-C-C
   628      689         1     ; C-C-C-H
   629      630         1     ; O-C-C-C
   630      633         1     ; C-C-C-C
   630      690         1     ; C-C-C-H
   630      635         1     ; C-C-C-O
   630      636         1     ; C-C-C-N
   631      691         1     ; C-C-C-H
   631      637         1     ; C-C-N-C
   631      692         1     ; C-C-N-H
   632      689         1     ; C-C-C-H
   632      635         1     ; C-C-C-O
   632      636         1     ; C-C-C-N
   633      634         1     ; C-C-C-C
   634      689         1     ; C-C-C-H
   634      690         1     ; C-C-C-H
   634      638         1     ; C-N-C-C
   634      642         1     ; C-N-C-C
   635      637         1     ; O-C-N-C
   635      692         1     ; O-C-N-H
   636      639         1     ; N-C-C-C
   636      693         1     ; N-C-C-H
   636      641         1     ; N-C-C-C
   636      696         1     ; N-C-C-H
   637      640         1     ; C-C-C-C
   637      694         1     ; C-C-C-H
   637      695         1     ; C-C-C-H
   638      692         1     ; C-C-N-H
   638      641         1     ; C-C-C-C
   638      696         1     ; C-C-C-H
   638      643         1     ; C-C-C-O
   639      642         1     ; C-C-C-C
   639      695         1     ; C-C-C-H
   639      644         1     ; C-C-O-C
   640      693         1     ; C-C-C-H
   640      696         1     ; C-C-C-H
   640      645         1     ; C-O-C-C
   640      649         1     ; C-O-C-C
   641      694         1     ; C-C-C-H
   641      644         1     ; C-C-O-C
   642      692         1     ; C-C-N-H
   642      693         1     ; C-C-C-H
   642      643         1     ; C-C-C-O
   643      694         1     ; O-C-C-H
   643      695         1     ; O-C-C-H
   643      646         1     ; O-C-C-C
   643      697         1     ; O-C-C-H
   643      648         1     ; O-C-C-C
   643      650         1     ; O-C-C-O
   644      647         1     ; C-C-C-C
   644      698         1     ; C-C-C-H
   644      700         1     ; C-C-C-H
   644      651         1     ; C-C-O-C
   645      648         1     ; C-C-C-C
   645      650         1     ; C-C-C-O
   645      699         1     ; C-C-C-H
   646      649         1     ; C-C-C-C
   646      700         1     ; C-C-C-H
   647      697         1     ; C-C-C-H
   647      650         1     ; C-C-C-O
   648      698         1     ; C-C-C-H
   648      651         1     ; C-C-O-C
   649      697         1     ; C-C-C-H
   649      699         1     ; C-C-C-H
   649      652         1     ; C-O-C-C
   649      656         1     ; C-O-C-C
   650      700         1     ; O-C-C-H
   650      653         1     ; O-C-C-C
   650      701         1     ; O-C-C-H
   650      655         1     ; O-C-C-C
   650      704         1     ; O-C-C-H
   651      654         1     ; C-C-C-C
   651      702         1     ; C-C-C-H
   651      703         1     ; C-C-C-H
   652      655         1     ; C-C-C-C
   652      704         1     ; C-C-C-H
   652      657         1     ; C-C-C-N
   653      656         1     ; C-C-C-C
   653      703         1     ; C-C-C-H
   653      658         1     ; C-C-N-C
   653      705         1     ; C-C-N-H
   654      701         1     ; C-C-C-H
   654      704         1     ; C-C-C-H
   654      659         1     ; C-N-C-O
   654      660         1     ; C-N-C-C
   655      702         1     ; C-C-C-H
   655      658         1     ; C-C-N-C
   655      705         1     ; C-C-N-H
   656      701         1     ; C-C-C-H
   656      657         1     ; C-C-C-N
   657      702         1     ; N-C-C-H
   657      703         1     ; N-C-C-H
   657      661         1     ; N-C-C-C
   657      665         1     ; N-C-C-C
   658      662         1     ; C-C-C-C
   658      706         1     ; C-C-C-H
   658      664         1     ; C-C-C-C
   658      709         1     ; C-C-C-H
   659      705         1     ; O-C-N-H
   659      661         1     ; O-C-C-C
   659      665         1     ; O-C-C-C
   660      705         1     ; C-C-N-H
   660      663         1     ; C-C-C-C
   660      707         1     ; C-C-C-H
   660      708         1     ; C-C-C-H
   661      664         1     ; C-C-C-C
   661      709         1     ; C-C-C-H
   661      666         1     ; C-C-C-N
   662      665         1     ; C-C-C-C
   662      708         1     ; C-C-C-H
   662      667         1     ; C-C-N-C
   662      671         1     ; C-C-N-C
   663      706         1     ; C-C-C-H
   663      709         1     ; C-C-C-H
   663      668         1     ; C-N-C-O
   663      669         1     ; C-N-C-C
   663      670         1     ; C-N-C-C
   663      672         1     ; C-N-C-O
   664      707         1     ; C-C-C-H
   664      667         1     ; C-C-N-C
   664      671         1     ; C-C-N-C
   665      706         1     ; C-C-C-H
   665      666         1     ; C-C-C-N
   666      707         1     ; N-C-C-H
   666      708         1     ; N-C-C-H
   666      676         1     ; N-C-C-C
   666      673         1     ; N-C-C-C
   667      672         1     ; C-N-C-O
   667      673         1     ; C-C-C-C
   667      675         1     ; C-C-C-C
   667      712         1     ; C-C-C-H
   668      671         1     ; O-C-N-C
   668      670         1     ; O-C-C-C
   668      676         1     ; O-C-C-C
   669      672         1     ; C-C-C-O
   669      674         1     ; C-C-C-C
   669      710         1     ; C-C-C-H
   669      711         1     ; C-C-C-H
   670      675         1     ; C-C-C-C
   670      712         1     ; C-C-C-H
   670      716         1     ; C-C-C-C
   671      676         1     ; C-C-C-C
   671      674         1     ; C-C-C-C
   671      710         1     ; C-C-C-H
   672      673         1     ; O-C-C-C
   673      676         1     ; C-C-C-C
   673      711         1     ; C-C-C-H
   673      717         1     ; C-C-C-C
   673      721         1     ; C-C-C-C
   674      712         1     ; C-C-C-H
   674      718         1     ; C-C-C-C
   674      797         1     ; C-C-C-H
   674      720         1     ; C-C-C-C
   674      799         1     ; C-C-C-H
   675      710         1     ; C-C-C-H
   675      717         1     ; C-C-C-C
   675      721         1     ; C-C-C-C
   676      716         1     ; C-C-C-C
   677      687         1     ; C-C-C-H
   677      688         1     ; C-C-C-H
   678      679         1     ; H-C-C-H
   681      682         1     ; H-C-C-H
   683      684         1     ; H-C-C-H
   686      687         1     ; H-C-C-H
   690      691         1     ; H-C-C-H
   693      694         1     ; H-C-C-H
   695      696         1     ; H-C-C-H
   697      698         1     ; H-C-C-H
   698      699         1     ; H-C-C-H
   699      700         1     ; H-C-C-H
   701      702         1     ; H-C-C-H
   703      704         1     ; H-C-C-H
   706      707         1     ; H-C-C-H
   708      709         1     ; H-C-C-H
   710      716         1     ; H-C-C-C
   711      716         1     ; H-C-C-C
   711      712         1     ; H-C-C-H
   716      719         1     ; C-C-C-C
   716      798         1     ; C-C-C-H
   716      722         1     ; C-C-C-C
   717      720         1     ; C-C-C-C
   717      799         1     ; C-C-C-H
   717      725         1     ; C-C-C-C
   718      721         1     ; C-C-C-C
   718      722         1     ; C-C-C-C
   718      724         1     ; C-C-C-N
   718      726         1     ; C-C-C-O
   719      797         1     ; C-C-C-H
   719      799         1     ; C-C-C-H
   719      723         1     ; C-C-C-O
   719      727         1     ; C-C-N-C
   720      798         1     ; C-C-C-H
   720      726         1     ; C-C-C-O
   720      727         1     ; C-C-N-C
   721      797         1     ; C-C-C-H
   721      725         1     ; C-C-C-C
   721      723         1     ; C-C-C-O
   721      724         1     ; C-C-C-N
   722      799         1     ; C-C-C-H
   722      726         1     ; C-N-C-O
   722      728         1     ; C-N-C-C
   722      732         1     ; C-N-C-C
   723      725         1     ; O-C-N-C
   723      727         1     ; O-C-N-C
   724      729         1     ; N-C-C-C
   724      800         1     ; N-C-C-H
   724      731         1     ; N-C-C-C
   724      803         1     ; N-C-C-H
   725      798         1     ; C-C-C-H
   725      728         1     ; C-N-C-C
   725      732         1     ; C-N-C-C
   726      727         1     ; O-C-N-C
   727      730         1     ; C-C-C-C
   727      801         1     ; C-C-C-H
   727      802         1     ; C-C-C-H
   728      731         1     ; C-C-C-C
   728      803         1     ; C-C-C-H
   728      733         1     ; C-C-C-N
   729      732         1     ; C-C-C-C
   729      802         1     ; C-C-C-H
   729      734         1     ; C-C-N-C
   729      804         1     ; C-C-N-H
   730      800         1     ; C-C-C-H
   730      803         1     ; C-C-C-H
   730      735         1     ; C-N-C-O
   730      736         1     ; C-N-C-C
   731      801         1     ; C-C-C-H
   731      734         1     ; C-C-N-C
   731      804         1     ; C-C-N-H
   732      800         1     ; C-C-C-H
   732      733         1     ; C-C-C-N
   733      801         1     ; N-C-C-H
   733      802         1     ; N-C-C-H
   733      737         1     ; N-C-C-C
   733      741         1     ; N-C-C-C
   734      738         1     ; C-C-C-C
   734      805         1     ; C-C-C-H
   734      740         1     ; C-C-C-C
   734      742         1     ; C-C-C-N
   735      804         1     ; O-C-N-H
   735      737         1     ; O-C-C-C
   735      741         1     ; O-C-C-C
   736      804         1     ; C-C-N-H
   736      739         1     ; C-C-C-C
   736      806         1     ; C-C-C-H
   736      807         1     ; C-C-C-H
   736      743         1     ; C-C-N-C
   736      747         1     ; C-C-N-C
   737      740         1     ; C-C-C-C
   737      742         1     ; C-C-C-N
   737      796         1     ; C-C-C-C
   738      741         1     ; C-C-C-C
   738      807         1     ; C-C-C-H
   738      832         1     ; C-C-C-H
   738      833         1     ; C-C-C-H
   738      834         1     ; C-C-C-H
   739      805         1     ; C-C-C-H
   739      742         1     ; C-C-C-N
   740      806         1     ; C-C-C-H
   740      832         1     ; C-C-C-H
   740      833         1     ; C-C-C-H
   740      834         1     ; C-C-C-H
   740      743         1     ; C-C-N-C
   740      747         1     ; C-C-N-C
   741      805         1     ; C-C-C-H
   741      796         1     ; C-C-C-C
   741      744         1     ; C-N-C-O
   741      745         1     ; C-N-C-C
   741      746         1     ; C-N-C-C
   741      748         1     ; C-N-C-O
   742      807         1     ; N-C-C-H
   742      752         1     ; N-C-C-C
   742      749         1     ; N-C-C-C
   743      748         1     ; C-N-C-O
   743      749         1     ; C-C-C-C
   743      751         1     ; C-C-C-C
   743      810         1     ; C-C-C-H
   744      747         1     ; O-C-N-C
   744      746         1     ; O-C-C-C
   744      752         1     ; O-C-C-C
   745      748         1     ; C-C-C-O
   745      750         1     ; C-C-C-C
   745      808         1     ; C-C-C-H
   745      809         1     ; C-C-C-H
   746      751         1     ; C-C-C-C
   746      810         1     ; C-C-C-H
   746      753         1     ; C-C-C-C
   747      752         1     ; C-C-C-C
   747      750         1     ; C-C-C-C
   747      808         1     ; C-C-C-H
   748      749         1     ; O-C-C-C
   749      752         1     ; C-C-C-C
   749      809         1     ; C-C-C-H
   749      754         1     ; C-C-C-O
   749      755         1     ; C-C-C-N
   750      810         1     ; C-C-C-H
   750      756         1     ; C-C-N-C
   750      811         1     ; C-C-N-H
   751      808         1     ; C-C-C-H
   751      754         1     ; C-C-C-O
   751      755         1     ; C-C-C-N
   752      753         1     ; C-C-C-C
   753      808         1     ; C-C-C-H
   753      809         1     ; C-C-C-H
   753      757         1     ; C-N-C-C
   753      761         1     ; C-N-C-C
   754      756         1     ; O-C-N-C
   754      811         1     ; O-C-N-H
   755      758         1     ; N-C-C-C
   755      812         1     ; N-C-C-H
   755      760         1     ; N-C-C-C
   755      815         1     ; N-C-C-H
   756      759         1     ; C-C-C-C
   756      813         1     ; C-C-C-H
   756      814         1     ; C-C-C-H
   757      811         1     ; C-C-N-H
   757      760         1     ; C-C-C-C
   757      815         1     ; C-C-C-H
   757      762         1     ; C-C-C-O
   758      761         1     ; C-C-C-C
   758      814         1     ; C-C-C-H
   758      763         1     ; C-C-O-C
   759      812         1     ; C-C-C-H
   759      815         1     ; C-C-C-H
   759      764         1     ; C-O-C-C
   759      768         1     ; C-O-C-C
   760      813         1     ; C-C-C-H
   760      763         1     ; C-C-O-C
   761      811         1     ; C-C-N-H
   761      812         1     ; C-C-C-H
   761      762         1     ; C-C-C-O
   762      813         1     ; O-C-C-H
   762      814         1     ; O-C-C-H
   762      765         1     ; O-C-C-C
   762      816         1     ; O-C-C-H
   762      767         1     ; O-C-C-C
   762      769         1     ; O-C-C-O
   763      766         1     ; C-C-C-C
   763      817         1     ; C-C-C-H
   763      819         1     ; C-C-C-H
   763      770         1     ; C-C-O-C
   764      767         1     ; C-C-C-C
   764      769         1     ; C-C-C-O
   764      818         1     ; C-C-C-H
   765      768         1     ; C-C-C-C
   765      819         1     ; C-C-C-H
   766      816         1     ; C-C-C-H
   766      769         1     ; C-C-C-O
   767      817         1     ; C-C-C-H
   767      770         1     ; C-C-O-C
   768      816         1     ; C-C-C-H
   768      818         1     ; C-C-C-H
   768      771         1     ; C-O-C-C
   768      775         1     ; C-O-C-C
   769      819         1     ; O-C-C-H
   769      772         1     ; O-C-C-C
   769      820         1     ; O-C-C-H
   769      774         1     ; O-C-C-C
   769      823         1     ; O-C-C-H
   770      773         1     ; C-C-C-C
   770      821         1     ; C-C-C-H
   770      822         1     ; C-C-C-H
   771      774         1     ; C-C-C-C
   771      823         1     ; C-C-C-H
   771      776         1     ; C-C-C-N
   772      775         1     ; C-C-C-C
   772      822         1     ; C-C-C-H
   772      777         1     ; C-C-N-C
   772      824         1     ; C-C-N-H
   773      820         1     ; C-C-C-H
   773      823         1     ; C-C-C-H
   773      778         1     ; C-N-C-O
   773      779         1     ; C-N-C-C
   774      821         1     ; C-C-C-H
   774      777         1     ; C-C-N-C
   774      824         1     ; C-C-N-H
   775      820         1     ; C-C-C-H
   775      776         1     ; C-C-C-N
   776      821         1     ; N-C-C-H
   776      822         1     ; N-C-C-H
   776      780         1     ; N-C-C-C
   776      784         1     ; N-C-C-C
   777      781         1     ; C-C-C-C
   777      825         1     ; C-C-C-H
   777      783         1     ; C-C-C-C
   777      828         1     ; C-C-C-H
   778      824         1     ; O-C-N-H
   778      780         1     ; O-C-C-C
   778      784         1     ; O-C-C-C
   779      824         1     ; C-C-N-H
   779      782         1     ; C-C-C-C
   779      826         1     ; C-C-C-H
   779      827         1     ; C-C-C-H
   780      783         1     ; C-C-C-C
   780      828         1     ; C-C-C-H
   780      785         1     ; C-C-C-N
   781      784         1     ; C-C-C-C
   781      827         1     ; C-C-C-H
   781      786         1     ; C-C-N-C
   781      790         1     ; C-C-N-C
   782      825         1     ; C-C-C-H
   782      828         1     ; C-C-C-H
   782      787         1     ; C-N-C-O
   782      788         1     ; C-N-C-C
   782      789         1     ; C-N-C-C
   782      791         1     ; C-N-C-O
   783      826         1     ; C-C-C-H
   783      786         1     ; C-C-N-C
   783      790         1     ; C-C-N-C
   784      825         1     ; C-C-C-H
   784      785         1     ; C-C-C-N
   785      826         1     ; N-C-C-H
   785      827         1     ; N-C-C-H
   785      795         1     ; N-C-C-C
   785      792         1     ; N-C-C-C
   786      791         1     ; C-N-C-O
   786      792         1     ; C-C-C-C
   786      794         1     ; C-C-C-C
   786      831         1     ; C-C-C-H
   787      790         1     ; O-C-N-C
   787      789         1     ; O-C-C-C
   787      795         1     ; O-C-C-C
   788      791         1     ; C-C-C-O
   788      793         1     ; C-C-C-C
   788      829         1     ; C-C-C-H
   788      830         1     ; C-C-C-H
   789      794         1     ; C-C-C-C
   789      831         1     ; C-C-C-H
   789      835         1     ; C-C-C-C
   790      795         1     ; C-C-C-C
   790      793         1     ; C-C-C-C
   790      829         1     ; C-C-C-H
   791      792         1     ; O-C-C-C
   792      795         1     ; C-C-C-C
   792      830         1     ; C-C-C-H
   792      836         1     ; C-C-C-C
   792      840         1     ; C-C-C-C
   793      831         1     ; C-C-C-H
   793      837         1     ; C-C-C-C
   793      916         1     ; C-C-C-H
   793      839         1     ; C-C-C-C
   793      918         1     ; C-C-C-H
   794      829         1     ; C-C-C-H
   794      836         1     ; C-C-C-C
   794      840         1     ; C-C-C-C
   795      835         1     ; C-C-C-C
   796      806         1     ; C-C-C-H
   796      807         1     ; C-C-C-H
   797      798         1     ; H-C-C-H
   800      801         1     ; H-C-C-H
   802      803         1     ; H-C-C-H
   805      806         1     ; H-C-C-H
   809      810         1     ; H-C-C-H
   812      813         1     ; H-C-C-H
   814      815         1     ; H-C-C-H
   816      817         1     ; H-C-C-H
   817      818         1     ; H-C-C-H
   818      819         1     ; H-C-C-H
   820      821         1     ; H-C-C-H
   822      823         1     ; H-C-C-H
   825      826         1     ; H-C-C-H
   827      828         1     ; H-C-C-H
   829      835         1     ; H-C-C-C
   830      835         1     ; H-C-C-C
   830      831         1     ; H-C-C-H
   835      838         1     ; C-C-C-C
   835      917         1     ; C-C-C-H
   835      841         1     ; C-C-C-C
   836      839         1     ; C-C-C-C
   836      918         1     ; C-C-C-H
   836      844         1     ; C-C-C-C
   837      840         1     ; C-C-C-C
   837      841         1     ; C-C-C-C
   837      843         1     ; C-C-C-N
   837      845         1     ; C-C-C-O
   838      916         1     ; C-C-C-H
   838      918         1     ; C-C-C-H
   838      842         1     ; C-C-C-O
   838      846         1     ; C-C-N-C
   839      917         1     ; C-C-C-H
   839      845         1     ; C-C-C-O
   839      846         1     ; C-C-N-C
   840      916         1     ; C-C-C-H
   840      844         1     ; C-C-C-C
   840      842         1     ; C-C-C-O
   840      843         1     ; C-C-C-N
   841      918         1     ; C-C-C-H
   841      845         1     ; C-N-C-O
   841      847         1     ; C-N-C-C
   841      851         1     ; C-N-C-C
   842      844         1     ; O-C-N-C
   842      846         1     ; O-C-N-C
   843      848         1     ; N-C-C-C
   843      919         1     ; N-C-C-H
   843      850         1     ; N-C-C-C
   843      922         1     ; N-C-C-H
   844      917         1     ; C-C-C-H
   844      847         1     ; C-N-C-C
   844      851         1     ; C-N-C-C
   845      846         1     ; O-C-N-C
   846      849         1     ; C-C-C-C
   846      920         1     ; C-C-C-H
   846      921         1     ; C-C-C-H
   847      850         1     ; C-C-C-C
   847      922         1     ; C-C-C-H
   847      852         1     ; C-C-C-N
   848      851         1     ; C-C-C-C
   848      921         1     ; C-C-C-H
   848      853         1     ; C-C-N-C
   848      923         1     ; C-C-N-H
   849      919         1     ; C-C-C-H
   849      922         1     ; C-C-C-H
   849      854         1     ; C-N-C-O
   849      855         1     ; C-N-C-C
   850      920         1     ; C-C-C-H
   850      853         1     ; C-C-N-C
   850      923         1     ; C-C-N-H
   851      919         1     ; C-C-C-H
   851      852         1     ; C-C-C-N
   852      920         1     ; N-C-C-H
   852      921         1     ; N-C-C-H
   852      856         1     ; N-C-C-C
   852      860         1     ; N-C-C-C
   853      857         1     ; C-C-C-C
   853      924         1     ; C-C-C-H
   853      859         1     ; C-C-C-C
   853      861         1     ; C-C-C-N
   854      923         1     ; O-C-N-H
   854      856         1     ; O-C-C-C
   854      860         1     ; O-C-C-C
   855      923         1     ; C-C-N-H
   855      858         1     ; C-C-C-C
   855      925         1     ; C-C-C-H
   855      926         1     ; C-C-C-H
   855      862         1     ; C-C-N-C
   855      866         1     ; C-C-N-C
   856      859         1     ; C-C-C-C
   856      861         1     ; C-C-C-N
   856      915         1     ; C-C-C-C
   857      860         1     ; C-C-C-C
   857      926         1     ; C-C-C-H
   857      951         1     ; C-C-C-H
   857      952         1     ; C-C-C-H
   857      953         1     ; C-C-C-H
   858      924         1     ; C-C-C-H
   858      861         1     ; C-C-C-N
   859      925         1     ; C-C-C-H
   859      951         1     ; C-C-C-H
   859      952         1     ; C-C-C-H
   859      953         1     ; C-C-C-H
   859      862         1     ; C-C-N-C
   859      866         1     ; C-C-N-C
   860      924         1     ; C-C-C-H
   860      915         1     ; C-C-C-C
   860      863         1     ; C-N-C-O
   860      864         1     ; C-N-C-C
   860      865         1     ; C-N-C-C
   860      867         1     ; C-N-C-O
   861      926         1     ; N-C-C-H
   861      871         1     ; N-C-C-C
   861      868         1     ; N-C-C-C
   862      867         1     ; C-N-C-O
   862      868         1     ; C-C-C-C
   862      870         1     ; C-C-C-C
   862      929         1     ; C-C-C-H
   863      866         1     ; O-C-N-C
   863      865         1     ; O-C-C-C
   863      871         1     ; O-C-C-C
   864      867         1     ; C-C-C-O
   864      869         1     ; C-C-C-C
   864      927         1     ; C-C-C-H
   864      928         1     ; C-C-C-H
   865      870         1     ; C-C-C-C
   865      929         1     ; C-C-C-H
   865      872         1     ; C-C-C-C
   866      871         1     ; C-C-C-C
   866      869         1     ; C-C-C-C
   866      927         1     ; C-C-C-H
   867      868         1     ; O-C-C-C
   868      871         1     ; C-C-C-C
   868      928         1     ; C-C-C-H
   868      873         1     ; C-C-C-O
   868      874         1     ; C-C-C-N
   869      929         1     ; C-C-C-H
   869      875         1     ; C-C-N-C
   869      930         1     ; C-C-N-H
   870      927         1     ; C-C-C-H
   870      873         1     ; C-C-C-O
   870      874         1     ; C-C-C-N
   871      872         1     ; C-C-C-C
   872      927         1     ; C-C-C-H
   872      928         1     ; C-C-C-H
   872      876         1     ; C-N-C-C
   872      880         1     ; C-N-C-C
   873      875         1     ; O-C-N-C
   873      930         1     ; O-C-N-H
   874      877         1     ; N-C-C-C
   874      931         1     ; N-C-C-H
   874      879         1     ; N-C-C-C
   874      934         1     ; N-C-C-H
   875      878         1     ; C-C-C-C
   875      932         1     ; C-C-C-H
   875      933         1     ; C-C-C-H
   876      930         1     ; C-C-N-H
   876      879         1     ; C-C-C-C
   876      934         1     ; C-C-C-H
   876      881         1     ; C-C-C-O
   877      880         1     ; C-C-C-C
   877      933         1     ; C-C-C-H
   877      882         1     ; C-C-O-C
   878      931         1     ; C-C-C-H
   878      934         1     ; C-C-C-H
   878      883         1     ; C-O-C-C
   878      887         1     ; C-O-C-C
   879      932         1     ; C-C-C-H
   879      882         1     ; C-C-O-C
   880      930         1     ; C-C-N-H
   880      931         1     ; C-C-C-H
   880      881         1     ; C-C-C-O
   881      932         1     ; O-C-C-H
   881      933         1     ; O-C-C-H
   881      884         1     ; O-C-C-C
   881      935         1     ; O-C-C-H
   881      886         1     ; O-C-C-C
   881      888         1     ; O-C-C-O
   882      885         1     ; C-C-C-C
   882      936         1     ; C-C-C-H
   882      938         1     ; C-C-C-H
   882      889         1     ; C-C-O-C
   883      886         1     ; C-C-C-C
   883      888         1     ; C-C-C-O
   883      937         1     ; C-C-C-H
   884      887         1     ; C-C-C-C
   884      938         1     ; C-C-C-H
   885      935         1     ; C-C-C-H
   885      888         1     ; C-C-C-O
   886      936         1     ; C-C-C-H
   886      889         1     ; C-C-O-C
   887      935         1     ; C-C-C-H
   887      937         1     ; C-C-C-H
   887      890         1     ; C-O-C-C
   887      894         1     ; C-O-C-C
   888      938         1     ; O-C-C-H
   888      891         1     ; O-C-C-C
   888      939         1     ; O-C-C-H
   888      893         1     ; O-C-C-C
   888      942         1     ; O-C-C-H
   889      892         1     ; C-C-C-C
   889      940         1     ; C-C-C-H
   889      941         1     ; C-C-C-H
   890      893         1     ; C-C-C-C
   890      942         1     ; C-C-C-H
   890      895         1     ; C-C-C-N
   891      894         1     ; C-C-C-C
   891      941         1     ; C-C-C-H
   891      896         1     ; C-C-N-C
   891      943         1     ; C-C-N-H
   892      939         1     ; C-C-C-H
   892      942         1     ; C-C-C-H
   892      897         1     ; C-N-C-O
   892      898         1     ; C-N-C-C
   893      940         1     ; C-C-C-H
   893      896         1     ; C-C-N-C
   893      943         1     ; C-C-N-H
   894      939         1     ; C-C-C-H
   894      895         1     ; C-C-C-N
   895      940         1     ; N-C-C-H
   895      941         1     ; N-C-C-H
   895      899         1     ; N-C-C-C
   895      903         1     ; N-C-C-C
   896      900         1     ; C-C-C-C
   896      944         1     ; C-C-C-H
   896      902         1     ; C-C-C-C
   896      947         1     ; C-C-C-H
   897      943         1     ; O-C-N-H
   897      899         1     ; O-C-C-C
   897      903         1     ; O-C-C-C
   898      943         1     ; C-C-N-H
   898      901         1     ; C-C-C-C
   898      945         1     ; C-C-C-H
   898      946         1     ; C-C-C-H
   899      902         1     ; C-C-C-C
   899      947         1     ; C-C-C-H
   899      904         1     ; C-C-C-N
   900      903         1     ; C-C-C-C
   900      946         1     ; C-C-C-H
   900      905         1     ; C-C-N-C
   900      909         1     ; C-C-N-C
   901      944         1     ; C-C-C-H
   901      947         1     ; C-C-C-H
   901      906         1     ; C-N-C-O
   901      907         1     ; C-N-C-C
   901      908         1     ; C-N-C-C
   901      910         1     ; C-N-C-O
   902      945         1     ; C-C-C-H
   902      905         1     ; C-C-N-C
   902      909         1     ; C-C-N-C
   903      944         1     ; C-C-C-H
   903      904         1     ; C-C-C-N
   904      945         1     ; N-C-C-H
   904      946         1     ; N-C-C-H
   904      914         1     ; N-C-C-C
   904      911         1     ; N-C-C-C
   905      910         1     ; C-N-C-O
   905      911         1     ; C-C-C-C
   905      913         1     ; C-C-C-C
   905      950         1     ; C-C-C-H
   906      909         1     ; O-C-N-C
   906      908         1     ; O-C-C-C
   906      914         1     ; O-C-C-C
   907      910         1     ; C-C-C-O
   907      912         1     ; C-C-C-C
   907      948         1     ; C-C-C-H
   907      949         1     ; C-C-C-H
   908      913         1     ; C-C-C-C
   908      950         1     ; C-C-C-H
   908      954         1     ; C-C-C-C
   909      914         1     ; C-C-C-C
   909      912         1     ; C-C-C-C
   909      948         1     ; C-C-C-H
   910      911         1     ; O-C-C-C
   911      914         1     ; C-C-C-C
   911      949         1     ; C-C-C-H
   911      955         1     ; C-C-C-C
   911      959         1     ; C-C-C-C
   912      950         1     ; C-C-C-H
   912      956         1     ; C-C-C-C
   912     1035         1     ; C-C-C-H
   912      958         1     ; C-C-C-C
   912     1037         1     ; C-C-C-H
   913      948         1     ; C-C-C-H
   913      955         1     ; C-C-C-C
   913      959         1     ; C-C-C-C
   914      954         1     ; C-C-C-C
   915      925         1     ; C-C-C-H
   915      926         1     ; C-C-C-H
   916      917         1     ; H-C-C-H
   919      920         1     ; H-C-C-H
   921      922         1     ; H-C-C-H
   924      925         1     ; H-C-C-H
   928      929         1     ; H-C-C-H
   931      932         1     ; H-C-C-H
   933      934         1     ; H-C-C-H
   935      936         1     ; H-C-C-H
   936      937         1     ; H-C-C-H
   937      938         1     ; H-C-C-H
   939      940         1     ; H-C-C-H
   941      942         1     ; H-C-C-H
   944      945         1     ; H-C-C-H
   946      947         1     ; H-C-C-H
   948      954         1     ; H-C-C-C
   949      954         1     ; H-C-C-C
   949      950         1     ; H-C-C-H
   954      957         1     ; C-C-C-C
   954     1036         1     ; C-C-C-H
   954      960         1     ; C-C-C-C
   955      958         1     ; C-C-C-C
   955     1037         1     ; C-C-C-H
   955      963         1     ; C-C-C-C
   956      959         1     ; C-C-C-C
   956      960         1     ; C-C-C-C
   956      962         1     ; C-C-C-N
   956      964         1     ; C-C-C-O
   957     1035         1     ; C-C-C-H
   957     1037         1     ; C-C-C-H
   957      961         1     ; C-C-C-O
   957      965         1     ; C-C-N-C
   958     1036         1     ; C-C-C-H
   958      964         1     ; C-C-C-O
   958      965         1     ; C-C-N-C
   959     1035         1     ; C-C-C-H
   959      963         1     ; C-C-C-C
   959      961         1     ; C-C-C-O
   959      962         1     ; C-C-C-N
   960     1037         1     ; C-C-C-H
   960      964         1     ; C-N-C-O
   960      966         1     ; C-N-C-C
   960      970         1     ; C-N-C-C
   961      963         1     ; O-C-N-C
   961      965         1     ; O-C-N-C
   962      967         1     ; N-C-C-C
   962     1038         1     ; N-C-C-H
   962      969         1     ; N-C-C-C
   962     1041         1     ; N-C-C-H
   963     1036         1     ; C-C-C-H
   963      966         1     ; C-N-C-C
   963      970         1     ; C-N-C-C
   964      965         1     ; O-C-N-C
   965      968         1     ; C-C-C-C
   965     1039         1     ; C-C-C-H
   965     1040         1     ; C-C-C-H
   966      969         1     ; C-C-C-C
   966     1041         1     ; C-C-C-H
   966      971         1     ; C-C-C-N
   967      970         1     ; C-C-C-C
   967     1040         1     ; C-C-C-H
   967      972         1     ; C-C-N-C
   967     1042         1     ; C-C-N-H
   968     1038         1     ; C-C-C-H
   968     1041         1     ; C-C-C-H
   968      973         1     ; C-N-C-O
   968      974         1     ; C-N-C-C
   969     1039         1     ; C-C-C-H
   969      972         1     ; C-C-N-C
   969     1042         1     ; C-C-N-H
   970     1038         1     ; C-C-C-H
   970      971         1     ; C-C-C-N
   971     1039         1     ; N-C-C-H
   971     1040         1     ; N-C-C-H
   971      975         1     ; N-C-C-C
   971      979         1     ; N-C-C-C
   972      976         1     ; C-C-C-C
   972     1043         1     ; C-C-C-H
   972      978         1     ; C-C-C-C
   972      980         1     ; C-C-C-N
   973     1042         1     ; O-C-N-H
   973      975         1     ; O-C-C-C
   973      979         1     ; O-C-C-C
   974     1042         1     ; C-C-N-H
   974      977         1     ; C-C-C-C
   974     1044         1     ; C-C-C-H
   974     1045         1     ; C-C-C-H
   974      981         1     ; C-C-N-C
   974      985         1     ; C-C-N-C
   975      978         1     ; C-C-C-C
   975      980         1     ; C-C-C-N
   975     1034         1     ; C-C-C-C
   976      979         1     ; C-C-C-C
   976     1045         1     ; C-C-C-H
   976     1070         1     ; C-C-C-H
   976     1071         1     ; C-C-C-H
   976     1072         1     ; C-C-C-H
   977     1043         1     ; C-C-C-H
   977      980         1     ; C-C-C-N
   978     1044         1     ; C-C-C-H
   978     1070         1     ; C-C-C-H
   978     1071         1     ; C-C-C-H
   978     1072         1     ; C-C-C-H
   978      981         1     ; C-C-N-C
   978      985         1     ; C-C-N-C
   979     1043         1     ; C-C-C-H
   979     1034         1     ; C-C-C-C
   979      982         1     ; C-N-C-O
   979      983         1     ; C-N-C-C
   979      984         1     ; C-N-C-C
   979      986         1     ; C-N-C-O
   980     1045         1     ; N-C-C-H
   980      990         1     ; N-C-C-C
   980      987         1     ; N-C-C-C
   981      986         1     ; C-N-C-O
   981      987         1     ; C-C-C-C
   981      989         1     ; C-C-C-C
   981     1048         1     ; C-C-C-H
   982      985         1     ; O-C-N-C
   982      984         1     ; O-C-C-C
   982      990         1     ; O-C-C-C
   983      986         1     ; C-C-C-O
   983      988         1     ; C-C-C-C
   983     1046         1     ; C-C-C-H
   983     1047         1     ; C-C-C-H
   984      989         1     ; C-C-C-C
   984     1048         1     ; C-C-C-H
   984      991         1     ; C-C-C-C
   985      990         1     ; C-C-C-C
   985      988         1     ; C-C-C-C
   985     1046         1     ; C-C-C-H
   986      987         1     ; O-C-C-C
   987      990         1     ; C-C-C-C
   987     1047         1     ; C-C-C-H
   987      992         1     ; C-C-C-O
   987      993         1     ; C-C-C-N
   988     1048         1     ; C-C-C-H
   988      994         1     ; C-C-N-C
   988     1049         1     ; C-C-N-H
   989     1046         1     ; C-C-C-H
   989      992         1     ; C-C-C-O
   989      993         1     ; C-C-C-N
   990      991         1     ; C-C-C-C
   991     1046         1     ; C-C-C-H
   991     1047         1     ; C-C-C-H
   991      995         1     ; C-N-C-C
   991      999         1     ; C-N-C-C
   992      994         1     ; O-C-N-C
   992     1049         1     ; O-C-N-H
   993      996         1     ; N-C-C-C
   993     1050         1     ; N-C-C-H
   993      998         1     ; N-C-C-C
   993     1053         1     ; N-C-C-H
   994      997         1     ; C-C-C-C
   994     1051         1     ; C-C-C-H
   994     1052         1     ; C-C-C-H
   995     1049         1     ; C-C-N-H
   995      998         1     ; C-C-C-C
   995     1053         1     ; C-C-C-H
   995     1000         1     ; C-C-C-O
   996      999         1     ; C-C-C-C
   996     1052         1     ; C-C-C-H
   996     1001         1     ; C-C-O-C
   997     1050         1     ; C-C-C-H
   997     1053         1     ; C-C-C-H
   997     1002         1     ; C-O-C-C
   997     1006         1     ; C-O-C-C
   998     1051         1     ; C-C-C-H
   998     1001         1     ; C-C-O-C
   999     1049         1     ; C-C-N-H
   999     1050         1     ; C-C-C-H
   999     1000         1     ; C-C-C-O
  1000     1051         1     ; O-C-C-H
  1000     1052         1     ; O-C-C-H
  1000     1003         1     ; O-C-C-C
  1000     1054         1     ; O-C-C-H
  1000     1005         1     ; O-C-C-C
  1000     1007         1     ; O-C-C-O
  1001     1004         1     ; C-C-C-C
  1001     1055         1     ; C-C-C-H
  1001     1057         1     ; C-C-C-H
  1001     1008         1     ; C-C-O-C
  1002     1005         1     ; C-C-C-C
  1002     1007         1     ; C-C-C-O
  1002     1056         1     ; C-C-C-H
  1003     1006         1     ; C-C-C-C
  1003     1057         1     ; C-C-C-H
  1004     1054         1     ; C-C-C-H
  1004     1007         1     ; C-C-C-O
  1005     1055         1     ; C-C-C-H
  1005     1008         1     ; C-C-O-C
  1006     1054         1     ; C-C-C-H
  1006     1056         1     ; C-C-C-H
  1006     1009         1     ; C-O-C-C
  1006     1013         1     ; C-O-C-C
  1007     1057         1     ; O-C-C-H
  1007     1010         1     ; O-C-C-C
  1007     1058         1     ; O-C-C-H
  1007     1012         1     ; O-C-C-C
  1007     1061         1     ; O-C-C-H
  1008     1011         1     ; C-C-C-C
  1008     1059         1     ; C-C-C-H
  1008     1060         1     ; C-C-C-H
  1009     1012         1     ; C-C-C-C
  1009     1061         1     ; C-C-C-H
  1009     1014         1     ; C-C-C-N
  1010     1013         1     ; C-C-C-C
  1010     1060         1     ; C-C-C-H
  1010     1015         1     ; C-C-N-C
  1010     1062         1     ; C-C-N-H
  1011     1058         1     ; C-C-C-H
  1011     1061         1     ; C-C-C-H
  1011     1016         1     ; C-N-C-O
  1011     1017         1     ; C-N-C-C
  1012     1059         1     ; C-C-C-H
  1012     1015         1     ; C-C-N-C
  1012     1062         1     ; C-C-N-H
  1013     1058         1     ; C-C-C-H
  1013     1014         1     ; C-C-C-N
  1014     1059         1     ; N-C-C-H
  1014     1060         1     ; N-C-C-H
  1014     1018         1     ; N-C-C-C
  1014     1022         1     ; N-C-C-C
  1015     1019         1     ; C-C-C-C
  1015     1063         1     ; C-C-C-H
  1015     1021         1     ; C-C-C-C
  1015     1066         1     ; C-C-C-H
  1016     1062         1     ; O-C-N-H
  1016     1018         1     ; O-C-C-C
  1016     1022         1     ; O-C-C-C
  1017     1062         1     ; C-C-N-H
  1017     1020         1     ; C-C-C-C
  1017     1064         1     ; C-C-C-H
  1017     1065         1     ; C-C-C-H
  1018     1021         1     ; C-C-C-C
  1018     1066         1     ; C-C-C-H
  1018     1023         1     ; C-C-C-N
  1019     1022         1     ; C-C-C-C
  1019     1065         1     ; C-C-C-H
  1019     1024         1     ; C-C-N-C
  1019     1028         1     ; C-C-N-C
  1020     1063         1     ; C-C-C-H
  1020     1066         1     ; C-C-C-H
  1020     1025         1     ; C-N-C-O
  1020     1026         1     ; C-N-C-C
  1020     1027         1     ; C-N-C-C
  1020     1029         1     ; C-N-C-O
  1021     1064         1     ; C-C-C-H
  1021     1024         1     ; C-C-N-C
  1021     1028         1     ; C-C-N-C
  1022     1063         1     ; C-C-C-H
  1022     1023         1     ; C-C-C-N
  1023     1064         1     ; N-C-C-H
  1023     1065         1     ; N-C-C-H
  1023     1033         1     ; N-C-C-C
  1023     1030         1     ; N-C-C-C
  1024     1029         1     ; C-N-C-O
  1024     1030         1     ; C-C-C-C
  1024     1032         1     ; C-C-C-C
  1024     1069         1     ; C-C-C-H
  1025     1028         1     ; O-C-N-C
  1025     1027         1     ; O-C-C-C
  1025     1033         1     ; O-C-C-C
  1026     1029         1     ; C-C-C-O
  1026     1031         1     ; C-C-C-C
  1026     1067         1     ; C-C-C-H
  1026     1068         1     ; C-C-C-H
  1027     1032         1     ; C-C-C-C
  1027     1069         1     ; C-C-C-H
  1027     1073         1     ; C-C-C-C
  1028     1033         1     ; C-C-C-C
  1028     1031         1     ; C-C-C-C
  1028     1067         1     ; C-C-C-H
  1029     1030         1     ; O-C-C-C
  1030     1033         1     ; C-C-C-C
  1030     1068         1     ; C-C-C-H
  1030     1074         1     ; C-C-C-C
  1030     1078         1     ; C-C-C-C
  1031     1069         1     ; C-C-C-H
  1031     1075         1     ; C-C-C-C
  1031     1154         1     ; C-C-C-H
  1031     1077         1     ; C-C-C-C
  1031     1156         1     ; C-C-C-H
  1032     1067         1     ; C-C-C-H
  1032     1074         1     ; C-C-C-C
  1032     1078         1     ; C-C-C-C
  1033     1073         1     ; C-C-C-C
  1034     1044         1     ; C-C-C-H
  1034     1045         1     ; C-C-C-H
  1035     1036         1     ; H-C-C-H
  1038     1039         1     ; H-C-C-H
  1040     1041         1     ; H-C-C-H
  1043     1044         1     ; H-C-C-H
  1047     1048         1     ; H-C-C-H
  1050     1051         1     ; H-C-C-H
  1052     1053         1     ; H-C-C-H
  1054     1055         1     ; H-C-C-H
  1055     1056         1     ; H-C-C-H
  1056     1057         1     ; H-C-C-H
  1058     1059         1     ; H-C-C-H
  1060     1061         1     ; H-C-C-H
  1063     1064         1     ; H-C-C-H
  1065     1066         1     ; H-C-C-H
  1067     1073         1     ; H-C-C-C
  1068     1073         1     ; H-C-C-C
  1068     1069         1     ; H-C-C-H
  1073     1076         1     ; C-C-C-C
  1073     1155         1     ; C-C-C-H
  1073     1079         1     ; C-C-C-C
  1074     1077         1     ; C-C-C-C
  1074     1156         1     ; C-C-C-H
  1074     1082         1     ; C-C-C-C
  1075     1078         1     ; C-C-C-C
  1075     1079         1     ; C-C-C-C
  1075     1081         1     ; C-C-C-N
  1075     1083         1     ; C-C-C-O
  1076     1154         1     ; C-C-C-H
  1076     1156         1     ; C-C-C-H
  1076     1080         1     ; C-C-C-O
  1076     1084         1     ; C-C-N-C
  1077     1155         1     ; C-C-C-H
  1077     1083         1     ; C-C-C-O
  1077     1084         1     ; C-C-N-C
  1078     1154         1     ; C-C-C-H
  1078     1082         1     ; C-C-C-C
  1078     1080         1     ; C-C-C-O
  1078     1081         1     ; C-C-C-N
  1079     1156         1     ; C-C-C-H
  1079     1083         1     ; C-N-C-O
  1079     1085         1     ; C-N-C-C
  1079     1089         1     ; C-N-C-C
  1080     1082         1     ; O-C-N-C
  1080     1084         1     ; O-C-N-C
  1081     1086         1     ; N-C-C-C
  1081     1157         1     ; N-C-C-H
  1081     1088         1     ; N-C-C-C
  1081     1160         1     ; N-C-C-H
  1082     1155         1     ; C-C-C-H
  1082     1085         1     ; C-N-C-C
  1082     1089         1     ; C-N-C-C
  1083     1084         1     ; O-C-N-C
  1084     1087         1     ; C-C-C-C
  1084     1158         1     ; C-C-C-H
  1084     1159         1     ; C-C-C-H
  1085     1088         1     ; C-C-C-C
  1085     1160         1     ; C-C-C-H
  1085     1090         1     ; C-C-C-N
  1086     1089         1     ; C-C-C-C
  1086     1159         1     ; C-C-C-H
  1086     1091         1     ; C-C-N-C
  1086     1161         1     ; C-C-N-H
  1087     1157         1     ; C-C-C-H
  1087     1160         1     ; C-C-C-H
  1087     1092         1     ; C-N-C-O
  1087     1093         1     ; C-N-C-C
  1088     1158         1     ; C-C-C-H
  1088     1091         1     ; C-C-N-C
  1088     1161         1     ; C-C-N-H
  1089     1157         1     ; C-C-C-H
  1089     1090         1     ; C-C-C-N
  1090     1158         1     ; N-C-C-H
  1090     1159         1     ; N-C-C-H
  1090     1094         1     ; N-C-C-C
  1090     1098         1     ; N-C-C-C
  1091     1095         1     ; C-C-C-C
  1091     1162         1     ; C-C-C-H
  1091     1097         1     ; C-C-C-C
  1091     1099         1     ; C-C-C-N
  1092     1161         1     ; O-C-N-H
  1092     1094         1     ; O-C-C-C
  1092     1098         1     ; O-C-C-C
  1093     1161         1     ; C-C-N-H
  1093     1096         1     ; C-C-C-C
  1093     1163         1     ; C-C-C-H
  1093     1164         1     ; C-C-C-H
  1093     1100         1     ; C-C-N-C
  1093     1104         1     ; C-C-N-C
  1094     1097         1     ; C-C-C-C
  1094     1099         1     ; C-C-C-N
  1094     1153         1     ; C-C-C-C
  1095     1098         1     ; C-C-C-C
  1095     1164         1     ; C-C-C-H
  1095     1189         1     ; C-C-C-H
  1095     1190         1     ; C-C-C-H
  1095     1191         1     ; C-C-C-H
  1096     1162         1     ; C-C-C-H
  1096     1099         1     ; C-C-C-N
  1097     1163         1     ; C-C-C-H
  1097     1189         1     ; C-C-C-H
  1097     1190         1     ; C-C-C-H
  1097     1191         1     ; C-C-C-H
  1097     1100         1     ; C-C-N-C
  1097     1104         1     ; C-C-N-C
  1098     1162         1     ; C-C-C-H
  1098     1153         1     ; C-C-C-C
  1098     1101         1     ; C-N-C-O
  1098     1102         1     ; C-N-C-C
  1098     1103         1     ; C-N-C-C
  1098     1105         1     ; C-N-C-O
  1099     1164         1     ; N-C-C-H
  1099     1109         1     ; N-C-C-C
  1099     1106         1     ; N-C-C-C
  1100     1105         1     ; C-N-C-O
  1100     1106         1     ; C-C-C-C
  1100     1108         1     ; C-C-C-C
  1100     1167         1     ; C-C-C-H
  1101     1104         1     ; O-C-N-C
  1101     1103         1     ; O-C-C-C
  1101     1109         1     ; O-C-C-C
  1102     1105         1     ; C-C-C-O
  1102     1107         1     ; C-C-C-C
  1102     1165         1     ; C-C-C-H
  1102     1166         1     ; C-C-C-H
  1103     1108         1     ; C-C-C-C
  1103     1167         1     ; C-C-C-H
  1103     1110         1     ; C-C-C-C
  1104     1109         1     ; C-C-C-C
  1104     1107         1     ; C-C-C-C
  1104     1165         1     ; C-C-C-H
  1105     1106         1     ; O-C-C-C
  1106     1109         1     ; C-C-C-C
  1106     1166         1     ; C-C-C-H
  1106     1111         1     ; C-C-C-O
  1106     1112         1     ; C-C-C-N
  1107     1167         1     ; C-C-C-H
  1107     1113         1     ; C-C-N-C
  1107     1168         1     ; C-C-N-H
  1108     1165         1     ; C-C-C-H
  1108     1111         1     ; C-C-C-O
  1108     1112         1     ; C-C-C-N
  1109     1110         1     ; C-C-C-C
  1110     1165         1     ; C-C-C-H
  1110     1166         1     ; C-C-C-H
  1110     1114         1     ; C-N-C-C
  1110     1118         1     ; C-N-C-C
  1111     1113         1     ; O-C-N-C
  1111     1168         1     ; O-C-N-H
  1112     1115         1     ; N-C-C-C
  1112     1169         1     ; N-C-C-H
  1112     1117         1     ; N-C-C-C
  1112     1172         1     ; N-C-C-H
  1113     1116         1     ; C-C-C-C
  1113     1170         1     ; C-C-C-H
  1113     1171         1     ; C-C-C-H
  1114     1168         1     ; C-C-N-H
  1114     1117         1     ; C-C-C-C
  1114     1172         1     ; C-C-C-H
  1114     1119         1     ; C-C-C-O
  1115     1118         1     ; C-C-C-C
  1115     1171         1     ; C-C-C-H
  1115     1120         1     ; C-C-O-C
  1116     1169         1     ; C-C-C-H
  1116     1172         1     ; C-C-C-H
  1116     1121         1     ; C-O-C-C
  1116     1125         1     ; C-O-C-C
  1117     1170         1     ; C-C-C-H
  1117     1120         1     ; C-C-O-C
  1118     1168         1     ; C-C-N-H
  1118     1169         1     ; C-C-C-H
  1118     1119         1     ; C-C-C-O
  1119     1170         1     ; O-C-C-H
  1119     1171         1     ; O-C-C-H
  1119     1122         1     ; O-C-C-C
  1119     1173         1     ; O-C-C-H
  1119     1124         1     ; O-C-C-C
  1119     1126         1     ; O-C-C-O
  1120     1123         1     ; C-C-C-C
  1120     1174         1     ; C-C-C-H
  1120     1176         1     ; C-C-C-H
  1120     1127         1     ; C-C-O-C
  1121     1124         1     ; C-C-C-C
  1121     1126         1     ; C-C-C-O
  1121     1175         1     ; C-C-C-H
  1122     1125         1     ; C-C-C-C
  1122     1176         1     ; C-C-C-H
  1123     1173         1     ; C-C-C-H
  1123     1126         1     ; C-C-C-O
  1124     1174         1     ; C-C-C-H
  1124     1127         1     ; C-C-O-C
  1125     1173         1     ; C-C-C-H
  1125     1175         1     ; C-C-C-H
  1125     1128         1     ; C-O-C-C
  1125     1132         1     ; C-O-C-C
  1126     1176         1     ; O-C-C-H
  1126     1129         1     ; O-C-C-C
  1126     1177         1     ; O-C-C-H
  1126     1131         1     ; O-C-C-C
  1126     1180         1     ; O-C-C-H
  1127     1130         1     ; C-C-C-C
  1127     1178         1     ; C-C-C-H
  1127     1179         1     ; C-C-C-H
  1128     1131         1     ; C-C-C-C
  1128     1180         1     ; C-C-C-H
  1128     1133         1     ; C-C-C-N
  1129     1132         1     ; C-C-C-C
  1129     1179         1     ; C-C-C-H
  1129     1134         1     ; C-C-N-C
  1129     1181         1     ; C-C-N-H
  1130     1177         1     ; C-C-C-H
  1130     1180         1     ; C-C-C-H
  1130     1135         1     ; C-N-C-O
  1130     1136         1     ; C-N-C-C
  1131     1178         1     ; C-C-C-H
  1131     1134         1     ; C-C-N-C
  1131     1181         1     ; C-C-N-H
  1132     1177         1     ; C-C-C-H
  1132     1133         1     ; C-C-C-N
  1133     1178         1     ; N-C-C-H
  1133     1179         1     ; N-C-C-H
  1133     1137         1     ; N-C-C-C
  1133     1141         1     ; N-C-C-C
  1134     1138         1     ; C-C-C-C
  1134     1182         1     ; C-C-C-H
  1134     1140         1     ; C-C-C-C
  1134     1185         1     ; C-C-C-H
  1135     1181         1     ; O-C-N-H
  1135     1137         1     ; O-C-C-C
  1135     1141         1     ; O-C-C-C
  1136     1181         1     ; C-C-N-H
  1136     1139         1     ; C-C-C-C
  1136     1183         1     ; C-C-C-H
  1136     1184         1     ; C-C-C-H
  1137     1140         1     ; C-C-C-C
  1137     1185         1     ; C-C-C-H
  1137     1142         1     ; C-C-C-N
  1138     1141         1     ; C-C-C-C
  1138     1184         1     ; C-C-C-H
  1138     1143         1     ; C-C-N-C
  1138     1147         1     ; C-C-N-C
  1139     1182         1     ; C-C-C-H
  1139     1185         1     ; C-C-C-H
  1139     1144         1     ; C-N-C-O
  1139     1145         1     ; C-N-C-C
  1139     1146         1     ; C-N-C-C
  1139     1148         1     ; C-N-C-O
  1140     1183         1     ; C-C-C-H
  1140     1143         1     ; C-C-N-C
  1140     1147         1     ; C-C-N-C
  1141     1182         1     ; C-C-C-H
  1141     1142         1     ; C-C-C-N
  1142     1183         1     ; N-C-C-H
  1142     1184         1     ; N-C-C-H
  1142     1152         1     ; N-C-C-C
  1142     1149         1     ; N-C-C-C
  1143     1148         1     ; C-N-C-O
  1143     1149         1     ; C-C-C-C
  1143     1151         1     ; C-C-C-C
  1143     1188         1     ; C-C-C-H
  1144     1147         1     ; O-C-N-C
  1144     1146         1     ; O-C-C-C
  1144     1152         1     ; O-C-C-C
  1145     1148         1     ; C-C-C-O
  1145     1150         1     ; C-C-C-C
  1145     1186         1     ; C-C-C-H
  1145     1187         1     ; C-C-C-H
  1146     1151         1     ; C-C-C-C
  1146     1188         1     ; C-C-C-H
  1146     1192         1     ; C-C-C-C
  1147     1152         1     ; C-C-C-C
  1147     1150         1     ; C-C-C-C
  1147     1186         1     ; C-C-C-H
  1148     1149         1     ; O-C-C-C
  1149     1152         1     ; C-C-C-C
  1149     1187         1     ; C-C-C-H
  1149     1193         1     ; C-C-C-C
  1149     1197         1     ; C-C-C-C
  1150     1188         1     ; C-C-C-H
  1150     1194         1     ; C-C-C-C
  1150     1273         1     ; C-C-C-H
  1150     1196         1     ; C-C-C-C
  1150     1275         1     ; C-C-C-H
  1151     1186         1     ; C-C-C-H
  1151     1193         1     ; C-C-C-C
  1151     1197         1     ; C-C-C-C
  1152     1192         1     ; C-C-C-C
  1153     1163         1     ; C-C-C-H
  1153     1164         1     ; C-C-C-H
  1154     1155         1     ; H-C-C-H
  1157     1158         1     ; H-C-C-H
  1159     1160         1     ; H-C-C-H
  1162     1163         1     ; H-C-C-H
  1166     1167         1     ; H-C-C-H
  1169     1170         1     ; H-C-C-H
  1171     1172         1     ; H-C-C-H
  1173     1174         1     ; H-C-C-H
  1174     1175         1     ; H-C-C-H
  1175     1176         1     ; H-C-C-H
  1177     1178         1     ; H-C-C-H
  1179     1180         1     ; H-C-C-H
  1182     1183         1     ; H-C-C-H
  1184     1185         1     ; H-C-C-H
  1186     1192         1     ; H-C-C-C
  1187     1192         1     ; H-C-C-C
  1187     1188         1     ; H-C-C-H
  1192     1195         1     ; C-C-C-C
  1192     1274         1     ; C-C-C-H
  1192     1198         1     ; C-C-C-C
  1193     1196         1     ; C-C-C-C
  1193     1275         1     ; C-C-C-H
  1193     1201         1     ; C-C-C-C
  1194     1197         1     ; C-C-C-C
  1194     1198         1     ; C-C-C-C
  1194     1200         1     ; C-C-C-N
  1194     1202         1     ; C-C-C-O
  1195     1273         1     ; C-C-C-H
  1195     1275         1     ; C-C-C-H
  1195     1199         1     ; C-C-C-O
  1195     1203         1     ; C-C-N-C
  1196     1274         1     ; C-C-C-H
  1196     1202         1     ; C-C-C-O
  1196     1203         1     ; C-C-N-C
  1197     1273         1     ; C-C-C-H
  1197     1201         1     ; C-C-C-C
  1197     1199         1     ; C-C-C-O
  1197     1200         1     ; C-C-C-N
  1198     1275         1     ; C-C-C-H
  1198     1202         1     ; C-N-C-O
  1198     1204         1     ; C-N-C-C
  1198     1208         1     ; C-N-C-C
  1199     1201         1     ; O-C-N-C
  1199     1203         1     ; O-C-N-C
  1200     1205         1     ; N-C-C-C
  1200     1276         1     ; N-C-C-H
  1200     1207         1     ; N-C-C-C
  1200     1279         1     ; N-C-C-H
  1201     1274         1     ; C-C-C-H
  1201     1204         1     ; C-N-C-C
  1201     1208         1     ; C-N-C-C
  1202     1203         1     ; O-C-N-C
  1203     1206         1     ; C-C-C-C
  1203     1277         1     ; C-C-C-H
  1203     1278         1     ; C-C-C-H
  1204     1207         1     ; C-C-C-C
  1204     1279         1     ; C-C-C-H
  1204     1209         1     ; C-C-C-N
  1205     1208         1     ; C-C-C-C
  1205     1278         1     ; C-C-C-H
  1205     1210         1     ; C-C-N-C
  1205     1280         1     ; C-C-N-H
  1206     1276         1     ; C-C-C-H
  1206     1279         1     ; C-C-C-H
  1206     1211         1     ; C-N-C-O
  1206     1212         1     ; C-N-C-C
  1207     1277         1     ; C-C-C-H
  1207     1210         1     ; C-C-N-C
  1207     1280         1     ; C-C-N-H
  1208     1276         1     ; C-C-C-H
  1208     1209         1     ; C-C-C-N
  1209     1277         1     ; N-C-C-H
  1209     1278         1     ; N-C-C-H
  1209     1213         1     ; N-C-C-C
  1209     1217         1     ; N-C-C-C
  1210     1214         1     ; C-C-C-C
  1210     1281         1     ; C-C-C-H
  1210     1216         1     ; C-C-C-C
  1210     1218         1     ; C-C-C-N
  1211     1280         1     ; O-C-N-H
  1211     1213         1     ; O-C-C-C
  1211     1217         1     ; O-C-C-C
  1212     1280         1     ; C-C-N-H
  1212     1215         1     ; C-C-C-C
  1212     1282         1     ; C-C-C-H
  1212     1283         1     ; C-C-C-H
  1212     1219         1     ; C-C-N-C
  1212     1223         1     ; C-C-N-C
  1213     1216         1     ; C-C-C-C
  1213     1218         1     ; C-C-C-N
  1213     1272         1     ; C-C-C-C
  1214     1217         1     ; C-C-C-C
  1214     1283         1     ; C-C-C-H
  1214     1308         1     ; C-C-C-H
  1214     1309         1     ; C-C-C-H
  1214     1310         1     ; C-C-C-H
  1215     1281         1     ; C-C-C-H
  1215     1218         1     ; C-C-C-N
  1216     1282         1     ; C-C-C-H
  1216     1308         1     ; C-C-C-H
  1216     1309         1     ; C-C-C-H
  1216     1310         1     ; C-C-C-H
  1216     1219         1     ; C-C-N-C
  1216     1223         1     ; C-C-N-C
  1217     1281         1     ; C-C-C-H
  1217     1272         1     ; C-C-C-C
  1217     1220         1     ; C-N-C-O
  1217     1221         1     ; C-N-C-C
  1217     1222         1     ; C-N-C-C
  1217     1224         1     ; C-N-C-O
  1218     1283         1     ; N-C-C-H
  1218     1228         1     ; N-C-C-C
  1218     1225         1     ; N-C-C-C
  1219     1224         1     ; C-N-C-O
  1219     1225         1     ; C-C-C-C
  1219     1227         1     ; C-C-C-C
  1219     1286         1     ; C-C-C-H
  1220     1223         1     ; O-C-N-C
  1220     1222         1     ; O-C-C-C
  1220     1228         1     ; O-C-C-C
  1221     1224         1     ; C-C-C-O
  1221     1226         1     ; C-C-C-C
  1221     1284         1     ; C-C-C-H
  1221     1285         1     ; C-C-C-H
  1222     1227         1     ; C-C-C-C
  1222     1286         1     ; C-C-C-H
  1222     1229         1     ; C-C-C-C
  1223     1228         1     ; C-C-C-C
  1223     1226         1     ; C-C-C-C
  1223     1284         1     ; C-C-C-H
  1224     1225         1     ; O-C-C-C
  1225     1228         1     ; C-C-C-C
  1225     1285         1     ; C-C-C-H
  1225     1230         1     ; C-C-C-O
  1225     1231         1     ; C-C-C-N
  1226     1286         1     ; C-C-C-H
  1226     1232         1     ; C-C-N-C
  1226     1287         1     ; C-C-N-H
  1227     1284         1     ; C-C-C-H
  1227     1230         1     ; C-C-C-O
  1227     1231         1     ; C-C-C-N
  1228     1229         1     ; C-C-C-C
  1229     1284         1     ; C-C-C-H
  1229     1285         1     ; C-C-C-H
  1229     1233         1     ; C-N-C-C
  1229     1237         1     ; C-N-C-C
  1230     1232         1     ; O-C-N-C
  1230     1287         1     ; O-C-N-H
  1231     1234         1     ; N-C-C-C
  1231     1288         1     ; N-C-C-H
  1231     1236         1     ; N-C-C-C
  1231     1291         1     ; N-C-C-H
  1232     1235         1     ; C-C-C-C
  1232     1289         1     ; C-C-C-H
  1232     1290         1     ; C-C-C-H
  1233     1287         1     ; C-C-N-H
  1233     1236         1     ; C-C-C-C
  1233     1291         1     ; C-C-C-H
  1233     1238         1     ; C-C-C-O
  1234     1237         1     ; C-C-C-C
  1234     1290         1     ; C-C-C-H
  1234     1239         1     ; C-C-O-C
  1235     1288         1     ; C-C-C-H
  1235     1291         1     ; C-C-C-H
  1235     1240         1     ; C-O-C-C
  1235     1244         1     ; C-O-C-C
  1236     1289         1     ; C-C-C-H
  1236     1239         1     ; C-C-O-C
  1237     1287         1     ; C-C-N-H
  1237     1288         1     ; C-C-C-H
  1237     1238         1     ; C-C-C-O
  1238     1289         1     ; O-C-C-H
  1238     1290         1     ; O-C-C-H
  1238     1241         1     ; O-C-C-C
  1238     1292         1     ; O-C-C-H
  1238     1243         1     ; O-C-C-C
  1238     1245         1     ; O-C-C-O
  1239     1242         1     ; C-C-C-C
  1239     1293         1     ; C-C-C-H
  1239     1295         1     ; C-C-C-H
  1239     1246         1     ; C-C-O-C
  1240     1243         1     ; C-C-C-C
  1240     1245         1     ; C-C-C-O
  1240     1294         1     ; C-C-C-H
  1241     1244         1     ; C-C-C-C
  1241     1295         1     ; C-C-C-H
  1242     1292         1     ; C-C-C-H
  1242     1245         1     ; C-C-C-O
  1243     1293         1     ; C-C-C-H
  1243     1246         1     ; C-C-O-C
  1244     1292         1     ; C-C-C-H
  1244     1294         1     ; C-C-C-H
  1244     1247         1     ; C-O-C-C
  1244     1251         1     ; C-O-C-C
  1245     1295         1     ; O-C-C-H
  1245     1248         1     ; O-C-C-C
  1245     1296         1     ; O-C-C-H
  1245     1250         1     ; O-C-C-C
  1245     1299         1     ; O-C-C-H
  1246     1249         1     ; C-C-C-C
  1246     1297         1     ; C-C-C-H
  1246     1298         1     ; C-C-C-H
  1247     1250         1     ; C-C-C-C
  1247     1299         1     ; C-C-C-H
  1247     1252         1     ; C-C-C-N
  1248     1251         1     ; C-C-C-C
  1248     1298         1     ; C-C-C-H
  1248     1253         1     ; C-C-N-C
  1248     1300         1     ; C-C-N-H
  1249     1296         1     ; C-C-C-H
  1249     1299         1     ; C-C-C-H
  1249     1254         1     ; C-N-C-O
  1249     1255         1     ; C-N-C-C
  1250     1297         1     ; C-C-C-H
  1250     1253         1     ; C-C-N-C
  1250     1300         1     ; C-C-N-H
  1251     1296         1     ; C-C-C-H
  1251     1252         1     ; C-C-C-N
  1252     1297         1     ; N-C-C-H
  1252     1298         1     ; N-C-C-H
  1252     1256         1     ; N-C-C-C
  1252     1260         1     ; N-C-C-C
  1253     1257         1     ; C-C-C-C
  1253     1301         1     ; C-C-C-H
  1253     1259         1     ; C-C-C-C
  1253     1304         1     ; C-C-C-H
  1254     1300         1     ; O-C-N-H
  1254     1256         1     ; O-C-C-C
  1254     1260         1     ; O-C-C-C
  1255     1300         1     ; C-C-N-H
  1255     1258         1     ; C-C-C-C
  1255     1302         1     ; C-C-C-H
  1255     1303         1     ; C-C-C-H
  1256     1259         1     ; C-C-C-C
  1256     1304         1     ; C-C-C-H
  1256     1261         1     ; C-C-C-N
  1257     1260         1     ; C-C-C-C
  1257     1303         1     ; C-C-C-H
  1257     1262         1     ; C-C-N-C
  1257     1266         1     ; C-C-N-C
  1258     1301         1     ; C-C-C-H
  1258     1304         1     ; C-C-C-H
  1258     1263         1     ; C-N-C-O
  1258     1264         1     ; C-N-C-C
  1258     1265         1     ; C-N-C-C
  1258     1267         1     ; C-N-C-O
  1259     1302         1     ; C-C-C-H
  1259     1262         1     ; C-C-N-C
  1259     1266         1     ; C-C-N-C
  1260     1301         1     ; C-C-C-H
  1260     1261         1     ; C-C-C-N
  1261     1302         1     ; N-C-C-H
  1261     1303         1     ; N-C-C-H
  1261     1271         1     ; N-C-C-C
  1261     1268         1     ; N-C-C-C
  1262     1267         1     ; C-N-C-O
  1262     1268         1     ; C-C-C-C
  1262     1270         1     ; C-C-C-C
  1262     1307         1     ; C-C-C-H
  1263     1266         1     ; O-C-N-C
  1263     1265         1     ; O-C-C-C
  1263     1271         1     ; O-C-C-C
  1264     1267         1     ; C-C-C-O
  1264     1269         1     ; C-C-C-C
  1264     1305         1     ; C-C-C-H
  1264     1306         1     ; C-C-C-H
  1265     1270         1     ; C-C-C-C
  1265     1307         1     ; C-C-C-H
  1265     1311         1     ; C-C-C-C
  1266     1271         1     ; C-C-C-C
  1266     1269         1     ; C-C-C-C
  1266     1305         1     ; C-C-C-H
  1267     1268         1     ; O-C-C-C
  1268     1271         1     ; C-C-C-C
  1268     1306         1     ; C-C-C-H
  1268     1312         1     ; C-C-C-C
  1268     1316         1     ; C-C-C-C
  1269     1307         1     ; C-C-C-H
  1269     1313         1     ; C-C-C-C
  1269     1392         1     ; C-C-C-H
  1269     1315         1     ; C-C-C-C
  1269     1394         1     ; C-C-C-H
  1270     1305         1     ; C-C-C-H
  1270     1312         1     ; C-C-C-C
  1270     1316         1     ; C-C-C-C
  1271     1311         1     ; C-C-C-C
  1272     1282         1     ; C-C-C-H
  1272     1283         1     ; C-C-C-H
  1273     1274         1     ; H-C-C-H
  1276     1277         1     ; H-C-C-H
  1278     1279         1     ; H-C-C-H
  1281     1282         1     ; H-C-C-H
  1285     1286         1     ; H-C-C-H
  1288     1289         1     ; H-C-C-H
  1290     1291         1     ; H-C-C-H
  1292     1293         1     ; H-C-C-H
  1293     1294         1     ; H-C-C-H
  1294     1295         1     ; H-C-C-H
  1296     1297         1     ; H-C-C-H
  1298     1299         1     ; H-C-C-H
  1301     1302         1     ; H-C-C-H
  1303     1304         1     ; H-C-C-H
  1305     1311         1     ; H-C-C-C
  1306     1311         1     ; H-C-C-C
  1306     1307         1     ; H-C-C-H
  1311     1314         1     ; C-C-C-C
  1311     1393         1     ; C-C-C-H
  1311     1317         1     ; C-C-C-C
  1312     1315         1     ; C-C-C-C
  1312     1394         1     ; C-C-C-H
  1312     1320         1     ; C-C-C-C
  1313     1316         1     ; C-C-C-C
  1313     1317         1     ; C-C-C-C
  1313     1319         1     ; C-C-C-N
  1313     1321         1     ; C-C-C-O
  1314     1392         1     ; C-C-C-H
  1314     1394         1     ; C-C-C-H
  1314     1318         1     ; C-C-C-O
  1314     1322         1     ; C-C-N-C
  1315     1393         1     ; C-C-C-H
  1315     1321         1     ; C-C-C-O
  1315     1322         1     ; C-C-N-C
  1316     1392         1     ; C-C-C-H
  1316     1320         1     ; C-C-C-C
  1316     1318         1     ; C-C-C-O
  1316     1319         1     ; C-C-C-N
  1317     1394         1     ; C-C-C-H
  1317     1321         1     ; C-N-C-O
  1317     1323         1     ; C-N-C-C
  1317     1327         1     ; C-N-C-C
  1318     1320         1     ; O-C-N-C
  1318     1322         1     ; O-C-N-C
  1319     1324         1     ; N-C-C-C
  1319     1395         1     ; N-C-C-H
  1319     1326         1     ; N-C-C-C
  1319     1398         1     ; N-C-C-H
  1320     1393         1     ; C-C-C-H
  1320     1323         1     ; C-N-C-C
  1320     1327         1     ; C-N-C-C
  1321     1322         1     ; O-C-N-C
  1322     1325         1     ; C-C-C-C
  1322     1396         1     ; C-C-C-H
  1322     1397         1     ; C-C-C-H
  1323     1326         1     ; C-C-C-C
  1323     1398         1     ; C-C-C-H
  1323     1328         1     ; C-C-C-N
  1324     1327         1     ; C-C-C-C
  1324     1397         1     ; C-C-C-H
  1324     1329         1     ; C-C-N-C
  1324     1399         1     ; C-C-N-H
  1325     1395         1     ; C-C-C-H
  1325     1398         1     ; C-C-C-H
  1325     1330         1     ; C-N-C-O
  1325     1331         1     ; C-N-C-C
  1326     1396         1     ; C-C-C-H
  1326     1329         1     ; C-C-N-C
  1326     1399         1     ; C-C-N-H
  1327     1395         1     ; C-C-C-H
  1327     1328         1     ; C-C-C-N
  1328     1396         1     ; N-C-C-H
  1328     1397         1     ; N-C-C-H
  1328     1332         1     ; N-C-C-C
  1328     1336         1     ; N-C-C-C
  1329     1333         1     ; C-C-C-C
  1329     1400         1     ; C-C-C-H
  1329     1335         1     ; C-C-C-C
  1329     1337         1     ; C-C-C-N
  1330     1399         1     ; O-C-N-H
  1330     1332         1     ; O-C-C-C
  1330     1336         1     ; O-C-C-C
  1331     1399         1     ; C-C-N-H
  1331     1334         1     ; C-C-C-C
  1331     1401         1     ; C-C-C-H
  1331     1402         1     ; C-C-C-H
  1331     1338         1     ; C-C-N-C
  1331     1342         1     ; C-C-N-C
  1332     1335         1     ; C-C-C-C
  1332     1337         1     ; C-C-C-N
  1332     1391         1     ; C-C-C-C
  1333     1336         1     ; C-C-C-C
  1333     1402         1     ; C-C-C-H
  1333     1427         1     ; C-C-C-H
  1333     1428         1     ; C-C-C-H
  1333     1429         1     ; C-C-C-H
  1334     1400         1     ; C-C-C-H
  1334     1337         1     ; C-C-C-N
  1335     1401         1     ; C-C-C-H
  1335     1427         1     ; C-C-C-H
  1335     1428         1     ; C-C-C-H
  1335     1429         1     ; C-C-C-H
  1335     1338         1     ; C-C-N-C
  1335     1342         1     ; C-C-N-C
  1336     1400         1     ; C-C-C-H
  1336     1391         1     ; C-C-C-C
  1336     1339         1     ; C-N-C-O
  1336     1340         1     ; C-N-C-C
  1336     1341         1     ; C-N-C-C
  1336     1343         1     ; C-N-C-O
  1337     1402         1     ; N-C-C-H
  1337     1347         1     ; N-C-C-C
  1337     1344         1     ; N-C-C-C
  1338     1343         1     ; C-N-C-O
  1338     1344         1     ; C-C-C-C
  1338     1346         1     ; C-C-C-C
  1338     1405         1     ; C-C-C-H
  1339     1342         1     ; O-C-N-C
  1339     1341         1     ; O-C-C-C
  1339     1347         1     ; O-C-C-C
  1340     1343         1     ; C-C-C-O
  1340     1345         1     ; C-C-C-C
  1340     1403         1     ; C-C-C-H
  1340     1404         1     ; C-C-C-H
  1341     1346         1     ; C-C-C-C
  1341     1405         1     ; C-C-C-H
  1341     1348         1     ; C-C-C-C
  1342     1347         1     ; C-C-C-C
  1342     1345         1     ; C-C-C-C
  1342     1403         1     ; C-C-C-H
  1343     1344         1     ; O-C-C-C
  1344     1347         1     ; C-C-C-C
  1344     1404         1     ; C-C-C-H
  1344     1349         1     ; C-C-C-O
  1344     1350         1     ; C-C-C-N
  1345     1405         1     ; C-C-C-H
  1345     1351         1     ; C-C-N-C
  1345     1406         1     ; C-C-N-H
  1346     1403         1     ; C-C-C-H
  1346     1349         1     ; C-C-C-O
  1346     1350         1     ; C-C-C-N
  1347     1348         1     ; C-C-C-C
  1348     1403         1     ; C-C-C-H
  1348     1404         1     ; C-C-C-H
  1348     1352         1     ; C-N-C-C
  1348     1356         1     ; C-N-C-C
  1349     1351         1     ; O-C-N-C
  1349     1406         1     ; O-C-N-H
  1350     1353         1     ; N-C-C-C
  1350     1407         1     ; N-C-C-H
  1350     1355         1     ; N-C-C-C
  1350     1410         1     ; N-C-C-H
  1351     1354         1     ; C-C-C-C
  1351     1408         1     ; C-C-C-H
  1351     1409         1     ; C-C-C-H
  1352     1406         1     ; C-C-N-H
  1352     1355         1     ; C-C-C-C
  1352     1410         1     ; C-C-C-H
  1352     1357         1     ; C-C-C-O
  1353     1356         1     ; C-C-C-C
  1353     1409         1     ; C-C-C-H
  1353     1358         1     ; C-C-O-C
  1354     1407         1     ; C-C-C-H
  1354     1410         1     ; C-C-C-H
  1354     1359         1     ; C-O-C-C
  1354     1363         1     ; C-O-C-C
  1355     1408         1     ; C-C-C-H
  1355     1358         1     ; C-C-O-C
  1356     1406         1     ; C-C-N-H
  1356     1407         1     ; C-C-C-H
  1356     1357         1     ; C-C-C-O
  1357     1408         1     ; O-C-C-H
  1357     1409         1     ; O-C-C-H
  1357     1360         1     ; O-C-C-C
  1357     1411         1     ; O-C-C-H
  1357     1362         1     ; O-C-C-C
  1357     1364         1     ; O-C-C-O
  1358     1361         1     ; C-C-C-C
  1358     1412         1     ; C-C-C-H
  1358     1414         1     ; C-C-C-H
  1358     1365         1     ; C-C-O-C
  1359     1362         1     ; C-C-C-C
  1359     1364         1     ; C-C-C-O
  1359     1413         1     ; C-C-C-H
  1360     1363         1     ; C-C-C-C
  1360     1414         1     ; C-C-C-H
  1361     1411         1     ; C-C-C-H
  1361     1364         1     ; C-C-C-O
  1362     1412         1     ; C-C-C-H
  1362     1365         1     ; C-C-O-C
  1363     1411         1     ; C-C-C-H
  1363     1413         1     ; C-C-C-H
  1363     1366         1     ; C-O-C-C
  1363     1370         1     ; C-O-C-C
  1364     1414         1     ; O-C-C-H
  1364     1367         1     ; O-C-C-C
  1364     1415         1     ; O-C-C-H
  1364     1369         1     ; O-C-C-C
  1364     1418         1     ; O-C-C-H
  1365     1368         1     ; C-C-C-C
  1365     1416         1     ; C-C-C-H
  1365     1417         1     ; C-C-C-H
  1366     1369         1     ; C-C-C-C
  1366     1418         1     ; C-C-C-H
  1366     1371         1     ; C-C-C-N
  1367     1370         1     ; C-C-C-C
  1367     1417         1     ; C-C-C-H
  1367     1372         1     ; C-C-N-C
  1367     1419         1     ; C-C-N-H
  1368     1415         1     ; C-C-C-H
  1368     1418         1     ; C-C-C-H
  1368     1373         1     ; C-N-C-O
  1368     1374         1     ; C-N-C-C
  1369     1416         1     ; C-C-C-H
  1369     1372         1     ; C-C-N-C
  1369     1419         1     ; C-C-N-H
  1370     1415         1     ; C-C-C-H
  1370     1371         1     ; C-C-C-N
  1371     1416         1     ; N-C-C-H
  1371     1417         1     ; N-C-C-H
  1371     1375         1     ; N-C-C-C
  1371     1379         1     ; N-C-C-C
  1372     1376         1     ; C-C-C-C
  1372     1420         1     ; C-C-C-H
  1372     1378         1     ; C-C-C-C
  1372     1423         1     ; C-C-C-H
  1373     1419         1     ; O-C-N-H
  1373     1375         1     ; O-C-C-C
  1373     1379         1     ; O-C-C-C
  1374     1419         1     ; C-C-N-H
  1374     1377         1     ; C-C-C-C
  1374     1421         1     ; C-C-C-H
  1374     1422         1     ; C-C-C-H
  1375     1378         1     ; C-C-C-C
  1375     1423         1     ; C-C-C-H
  1375     1380         1     ; C-C-C-N
  1376     1379         1     ; C-C-C-C
  1376     1422         1     ; C-C-C-H
  1376     1381         1     ; C-C-N-C
  1376     1385         1     ; C-C-N-C
  1377     1420         1     ; C-C-C-H
  1377     1423         1     ; C-C-C-H
  1377     1382         1     ; C-N-C-O
  1377     1383         1     ; C-N-C-C
  1377     1384         1     ; C-N-C-C
  1377     1386         1     ; C-N-C-O
  1378     1421         1     ; C-C-C-H
  1378     1381         1     ; C-C-N-C
  1378     1385         1     ; C-C-N-C
  1379     1420         1     ; C-C-C-H
  1379     1380         1     ; C-C-C-N
  1380     1421         1     ; N-C-C-H
  1380     1422         1     ; N-C-C-H
  1380     1390         1     ; N-C-C-C
  1380     1387         1     ; N-C-C-C
  1381     1386         1     ; C-N-C-O
  1381     1387         1     ; C-C-C-C
  1381     1389         1     ; C-C-C-C
  1381     1426         1     ; C-C-C-H
  1382     1385         1     ; O-C-N-C
  1382     1384         1     ; O-C-C-C
  1382     1390         1     ; O-C-C-C
  1383     1386         1     ; C-C-C-O
  1383     1388         1     ; C-C-C-C
  1383     1424         1     ; C-C-C-H
  1383     1425         1     ; C-C-C-H
  1384     1389         1     ; C-C-C-C
  1384     1426         1     ; C-C-C-H
  1384     1430         1     ; C-C-C-C
  1385     1390         1     ; C-C-C-C
  1385     1388         1     ; C-C-C-C
  1385     1424         1     ; C-C-C-H
  1386     1387         1     ; O-C-C-C
  1387     1390         1     ; C-C-C-C
  1387     1425         1     ; C-C-C-H
  1387     1431         1     ; C-C-C-C
  1387     1435         1     ; C-C-C-C
  1388     1426         1     ; C-C-C-H
  1388     1432         1     ; C-C-C-C
  1388     1511         1     ; C-C-C-H
  1388     1434         1     ; C-C-C-C
  1388     1513         1     ; C-C-C-H
  1389     1424         1     ; C-C-C-H
  1389     1431         1     ; C-C-C-C
  1389     1435         1     ; C-C-C-C
  1390     1430         1     ; C-C-C-C
  1391     1401         1     ; C-C-C-H
  1391     1402         1     ; C-C-C-H
  1392     1393         1     ; H-C-C-H
  1395     1396         1     ; H-C-C-H
  1397     1398         1     ; H-C-C-H
  1400     1401         1     ; H-C-C-H
  1404     1405         1     ; H-C-C-H
  1407     1408         1     ; H-C-C-H
  1409     1410         1     ; H-C-C-H
  1411     1412         1     ; H-C-C-H
  1412     1413         1     ; H-C-C-H
  1413     1414         1     ; H-C-C-H
  1415     1416         1     ; H-C-C-H
  1417     1418         1     ; H-C-C-H
  1420     1421         1     ; H-C-C-H
  1422     1423         1     ; H-C-C-H
  1424     1430         1     ; H-C-C-C
  1425     1430         1     ; H-C-C-C
  1425     1426         1     ; H-C-C-H
  1430     1433         1     ; C-C-C-C
  1430     1512         1     ; C-C-C-H
  1430     1436         1     ; C-C-C-C
  1431     1434         1     ; C-C-C-C
  1431     1513         1     ; C-C-C-H
  1431     1439         1     ; C-C-C-C
  1432     1435         1     ; C-C-C-C
  1432     1436         1     ; C-C-C-C
  1432     1438         1     ; C-C-C-N
  1432     1440         1     ; C-C-C-O
  1433     1511         1     ; C-C-C-H
  1433     1513         1     ; C-C-C-H
  1433     1437         1     ; C-C-C-O
  1433     1441         1     ; C-C-N-C
  1434     1512         1     ; C-C-C-H
  1434     1440         1     ; C-C-C-O
  1434     1441         1     ; C-C-N-C
  1435     1511         1     ; C-C-C-H
  1435     1439         1     ; C-C-C-C
  1435     1437         1     ; C-C-C-O
  1435     1438         1     ; C-C-C-N
  1436     1513         1     ; C-C-C-H
  1436     1440         1     ; C-N-C-O
  1436     1442         1     ; C-N-C-C
  1436     1446         1     ; C-N-C-C
  1437     1439         1     ; O-C-N-C
  1437     1441         1     ; O-C-N-C
  1438     1443         1     ; N-C-C-C
  1438     1514         1     ; N-C-C-H
  1438     1445         1     ; N-C-C-C
  1438     1517         1     ; N-C-C-H
  1439     1512         1     ; C-C-C-H
  1439     1442         1     ; C-N-C-C
  1439     1446         1     ; C-N-C-C
  1440     1441         1     ; O-C-N-C
  1441     1444         1     ; C-C-C-C
  1441     1515         1     ; C-C-C-H
  1441     1516         1     ; C-C-C-H
  1442     1445         1     ; C-C-C-C
  1442     1517         1     ; C-C-C-H
  1442     1447         1     ; C-C-C-N
  1443     1446         1     ; C-C-C-C
  1443     1516         1     ; C-C-C-H
  1443     1448         1     ; C-C-N-C
  1443     1518         1     ; C-C-N-H
  1444     1514         1     ; C-C-C-H
  1444     1517         1     ; C-C-C-H
  1444     1449         1     ; C-N-C-O
  1444     1450         1     ; C-N-C-C
  1445     1515         1     ; C-C-C-H
  1445     1448         1     ; C-C-N-C
  1445     1518         1     ; C-C-N-H
  1446     1514         1     ; C-C-C-H
  1446     1447         1     ; C-C-C-N
  1447     1515         1     ; N-C-C-H
  1447     1516         1     ; N-C-C-H
  1447     1451         1     ; N-C-C-C
  1447     1455         1     ; N-C-C-C
  1448     1452         1     ; C-C-C-C
  1448     1519         1     ; C-C-C-H
  1448     1454         1     ; C-C-C-C
  1448     1456         1     ; C-C-C-N
  1449     1518         1     ; O-C-N-H
  1449     1451         1     ; O-C-C-C
  1449     1455         1     ; O-C-C-C
  1450     1518         1     ; C-C-N-H
  1450     1453         1     ; C-C-C-C
  1450     1520         1     ; C-C-C-H
  1450     1521         1     ; C-C-C-H
  1450     1457         1     ; C-C-N-C
  1450     1461         1     ; C-C-N-C
  1451     1454         1     ; C-C-C-C
  1451     1456         1     ; C-C-C-N
  1451     1510         1     ; C-C-C-C
  1452     1455         1     ; C-C-C-C
  1452     1521         1     ; C-C-C-H
  1452     1546         1     ; C-C-C-H
  1452     1547         1     ; C-C-C-H
  1452     1548         1     ; C-C-C-H
  1453     1519         1     ; C-C-C-H
  1453     1456         1     ; C-C-C-N
  1454     1520         1     ; C-C-C-H
  1454     1546         1     ; C-C-C-H
  1454     1547         1     ; C-C-C-H
  1454     1548         1     ; C-C-C-H
  1454     1457         1     ; C-C-N-C
  1454     1461         1     ; C-C-N-C
  1455     1519         1     ; C-C-C-H
  1455     1510         1     ; C-C-C-C
  1455     1458         1     ; C-N-C-O
  1455     1459         1     ; C-N-C-C
  1455     1460         1     ; C-N-C-C
  1455     1462         1     ; C-N-C-O
  1456     1521         1     ; N-C-C-H
  1456     1466         1     ; N-C-C-C
  1456     1463         1     ; N-C-C-C
  1457     1462         1     ; C-N-C-O
  1457     1463         1     ; C-C-C-C
  1457     1465         1     ; C-C-C-C
  1457     1524         1     ; C-C-C-H
  1458     1461         1     ; O-C-N-C
  1458     1460         1     ; O-C-C-C
  1458     1466         1     ; O-C-C-C
  1459     1462         1     ; C-C-C-O
  1459     1464         1     ; C-C-C-C
  1459     1522         1     ; C-C-C-H
  1459     1523         1     ; C-C-C-H
  1460     1465         1     ; C-C-C-C
  1460     1524         1     ; C-C-C-H
  1460     1467         1     ; C-C-C-C
  1461     1466         1     ; C-C-C-C
  1461     1464         1     ; C-C-C-C
  1461     1522         1     ; C-C-C-H
  1462     1463         1     ; O-C-C-C
  1463     1466         1     ; C-C-C-C
  1463     1523         1     ; C-C-C-H
  1463     1468         1     ; C-C-C-O
  1463     1469         1     ; C-C-C-N
  1464     1524         1     ; C-C-C-H
  1464     1470         1     ; C-C-N-C
  1464     1525         1     ; C-C-N-H
  1465     1522         1     ; C-C-C-H
  1465     1468         1     ; C-C-C-O
  1465     1469         1     ; C-C-C-N
  1466     1467         1     ; C-C-C-C
  1467     1522         1     ; C-C-C-H
  1467     1523         1     ; C-C-C-H
  1467     1471         1     ; C-N-C-C
  1467     1475         1     ; C-N-C-C
  1468     1470         1     ; O-C-N-C
  1468     1525         1     ; O-C-N-H
  1469     1472         1     ; N-C-C-C
  1469     1526         1     ; N-C-C-H
  1469     1474         1     ; N-C-C-C
  1469     1529         1     ; N-C-C-H
  1470     1473         1     ; C-C-C-C
  1470     1527         1     ; C-C-C-H
  1470     1528         1     ; C-C-C-H
  1471     1525         1     ; C-C-N-H
  1471     1474         1     ; C-C-C-C
  1471     1529         1     ; C-C-C-H
  1471     1476         1     ; C-C-C-O
  1472     1475         1     ; C-C-C-C
  1472     1528         1     ; C-C-C-H
  1472     1477         1     ; C-C-O-C
  1473     1526         1     ; C-C-C-H
  1473     1529         1     ; C-C-C-H
  1473     1478         1     ; C-O-C-C
  1473     1482         1     ; C-O-C-C
  1474     1527         1     ; C-C-C-H
  1474     1477         1     ; C-C-O-C
  1475     1525         1     ; C-C-N-H
  1475     1526         1     ; C-C-C-H
  1475     1476         1     ; C-C-C-O
  1476     1527         1     ; O-C-C-H
  1476     1528         1     ; O-C-C-H
  1476     1479         1     ; O-C-C-C
  1476     1530         1     ; O-C-C-H
  1476     1481         1     ; O-C-C-C
  1476     1483         1     ; O-C-C-O
  1477     1480         1     ; C-C-C-C
  1477     1531         1     ; C-C-C-H
  1477     1533         1     ; C-C-C-H
  1477     1484         1     ; C-C-O-C
  1478     1481         1     ; C-C-C-C
  1478     1483         1     ; C-C-C-O
  1478     1532         1     ; C-C-C-H
  1479     1482         1     ; C-C-C-C
  1479     1533         1     ; C-C-C-H
  1480     1530         1     ; C-C-C-H
  1480     1483         1     ; C-C-C-O
  1481     1531         1     ; C-C-C-H
  1481     1484         1     ; C-C-O-C
  1482     1530         1     ; C-C-C-H
  1482     1532         1     ; C-C-C-H
  1482     1485         1     ; C-O-C-C
  1482     1489         1     ; C-O-C-C
  1483     1533         1     ; O-C-C-H
  1483     1486         1     ; O-C-C-C
  1483     1534         1     ; O-C-C-H
  1483     1488         1     ; O-C-C-C
  1483     1537         1     ; O-C-C-H
  1484     1487         1     ; C-C-C-C
  1484     1535         1     ; C-C-C-H
  1484     1536         1     ; C-C-C-H
  1485     1488         1     ; C-C-C-C
  1485     1537         1     ; C-C-C-H
  1485     1490         1     ; C-C-C-N
  1486     1489         1     ; C-C-C-C
  1486     1536         1     ; C-C-C-H
  1486     1491         1     ; C-C-N-C
  1486     1538         1     ; C-C-N-H
  1487     1534         1     ; C-C-C-H
  1487     1537         1     ; C-C-C-H
  1487     1492         1     ; C-N-C-O
  1487     1493         1     ; C-N-C-C
  1488     1535         1     ; C-C-C-H
  1488     1491         1     ; C-C-N-C
  1488     1538         1     ; C-C-N-H
  1489     1534         1     ; C-C-C-H
  1489     1490         1     ; C-C-C-N
  1490     1535         1     ; N-C-C-H
  1490     1536         1     ; N-C-C-H
  1490     1494         1     ; N-C-C-C
  1490     1498         1     ; N-C-C-C
  1491     1495         1     ; C-C-C-C
  1491     1539         1     ; C-C-C-H
  1491     1497         1     ; C-C-C-C
  1491     1542         1     ; C-C-C-H
  1492     1538         1     ; O-C-N-H
  1492     1494         1     ; O-C-C-C
  1492     1498         1     ; O-C-C-C
  1493     1538         1     ; C-C-N-H
  1493     1496         1     ; C-C-C-C
  1493     1540         1     ; C-C-C-H
  1493     1541         1     ; C-C-C-H
  1494     1497         1     ; C-C-C-C
  1494     1542         1     ; C-C-C-H
  1494     1499         1     ; C-C-C-N
  1495     1498         1     ; C-C-C-C
  1495     1541         1     ; C-C-C-H
  1495     1500         1     ; C-C-N-C
  1495     1504         1     ; C-C-N-C
  1496     1539         1     ; C-C-C-H
  1496     1542         1     ; C-C-C-H
  1496     1501         1     ; C-N-C-O
  1496     1502         1     ; C-N-C-C
  1496     1503         1     ; C-N-C-C
  1496     1505         1     ; C-N-C-O
  1497     1540         1     ; C-C-C-H
  1497     1500         1     ; C-C-N-C
  1497     1504         1     ; C-C-N-C
  1498     1539         1     ; C-C-C-H
  1498     1499         1     ; C-C-C-N
  1499     1540         1     ; N-C-C-H
  1499     1541         1     ; N-C-C-H
  1499     1509         1     ; N-C-C-C
  1499     1506         1     ; N-C-C-C
  1500     1505         1     ; C-N-C-O
  1500     1506         1     ; C-C-C-C
  1500     1508         1     ; C-C-C-C
  1500     1545         1     ; C-C-C-H
  1501     1504         1     ; O-C-N-C
  1501     1503         1     ; O-C-C-C
  1501     1509         1     ; O-C-C-C
  1502     1505         1     ; C-C-C-O
  1502     1507         1     ; C-C-C-C
  1502     1543         1     ; C-C-C-H
  1502     1544         1     ; C-C-C-H
  1503     1508         1     ; C-C-C-C
  1503     1545         1     ; C-C-C-H
  1503     1549         1     ; C-C-C-C
  1504     1509         1     ; C-C-C-C
  1504     1507         1     ; C-C-C-C
  1504     1543         1     ; C-C-C-H
  1505     1506         1     ; O-C-C-C
  1506     1509         1     ; C-C-C-C
  1506     1544         1     ; C-C-C-H
  1506     1550         1     ; C-C-C-C
  1506     1554         1     ; C-C-C-C
  1507     1545         1     ; C-C-C-H
  1507     1551         1     ; C-C-C-C
  1507     1630         1     ; C-C-C-H
  1507     1553         1     ; C-C-C-C
  1507     1632         1     ; C-C-C-H
  1508     1543         1     ; C-C-C-H
  1508     1550         1     ; C-C-C-C
  1508     1554         1     ; C-C-C-C
  1509     1549         1     ; C-C-C-C
  1510     1520         1     ; C-C-C-H
  1510     1521         1     ; C-C-C-H
  1511     1512         1     ; H-C-C-H
  1514     1515         1     ; H-C-C-H
  1516     1517         1     ; H-C-C-H
  1519     1520         1     ; H-C-C-H
  1523     1524         1     ; H-C-C-H
  1526     1527         1     ; H-C-C-H
  1528     1529         1     ; H-C-C-H
  1530     1531         1     ; H-C-C-H
  1531     1532         1     ; H-C-C-H
  1532     1533         1     ; H-C-C-H
  1534     1535         1     ; H-C-C-H
  1536     1537         1     ; H-C-C-H
  1539     1540         1     ; H-C-C-H
  1541     1542         1     ; H-C-C-H
  1543     1549         1     ; H-C-C-C
  1544     1549         1     ; H-C-C-C
  1544     1545         1     ; H-C-C-H
  1549     1552         1     ; C-C-C-C
  1549     1631         1     ; C-C-C-H
  1549     1555         1     ; C-C-C-C
  1550     1553         1     ; C-C-C-C
  1550     1632         1     ; C-C-C-H
  1550     1558         1     ; C-C-C-C
  1551     1554         1     ; C-C-C-C
  1551     1555         1     ; C-C-C-C
  1551     1557         1     ; C-C-C-N
  1551     1559         1     ; C-C-C-O
  1552     1630         1     ; C-C-C-H
  1552     1632         1     ; C-C-C-H
  1552     1556         1     ; C-C-C-O
  1552     1560         1     ; C-C-N-C
  1553     1631         1     ; C-C-C-H
  1553     1559         1     ; C-C-C-O
  1553     1560         1     ; C-C-N-C
  1554     1630         1     ; C-C-C-H
  1554     1558         1     ; C-C-C-C
  1554     1556         1     ; C-C-C-O
  1554     1557         1     ; C-C-C-N
  1555     1632         1     ; C-C-C-H
  1555     1559         1     ; C-N-C-O
  1555     1561         1     ; C-N-C-C
  1555     1565         1     ; C-N-C-C
  1556     1558         1     ; O-C-N-C
  1556     1560         1     ; O-C-N-C
  1557     1562         1     ; N-C-C-C
  1557     1633         1     ; N-C-C-H
  1557     1564         1     ; N-C-C-C
  1557     1636         1     ; N-C-C-H
  1558     1631         1     ; C-C-C-H
  1558     1561         1     ; C-N-C-C
  1558     1565         1     ; C-N-C-C
  1559     1560         1     ; O-C-N-C
  1560     1563         1     ; C-C-C-C
  1560     1634         1     ; C-C-C-H
  1560     1635         1     ; C-C-C-H
  1561     1564         1     ; C-C-C-C
  1561     1636         1     ; C-C-C-H
  1561     1566         1     ; C-C-C-N
  1562     1565         1     ; C-C-C-C
  1562     1635         1     ; C-C-C-H
  1562     1567         1     ; C-C-N-C
  1562     1637         1     ; C-C-N-H
  1563     1633         1     ; C-C-C-H
  1563     1636         1     ; C-C-C-H
  1563     1568         1     ; C-N-C-O
  1563     1569         1     ; C-N-C-C
  1564     1634         1     ; C-C-C-H
  1564     1567         1     ; C-C-N-C
  1564     1637         1     ; C-C-N-H
  1565     1633         1     ; C-C-C-H
  1565     1566         1     ; C-C-C-N
  1566     1634         1     ; N-C-C-H
  1566     1635         1     ; N-C-C-H
  1566     1570         1     ; N-C-C-C
  1566     1574         1     ; N-C-C-C
  1567     1571         1     ; C-C-C-C
  1567     1638         1     ; C-C-C-H
  1567     1573         1     ; C-C-C-C
  1567     1575         1     ; C-C-C-N
  1568     1637         1     ; O-C-N-H
  1568     1570         1     ; O-C-C-C
  1568     1574         1     ; O-C-C-C
  1569     1637         1     ; C-C-N-H
  1569     1572         1     ; C-C-C-C
  1569     1639         1     ; C-C-C-H
  1569     1640         1     ; C-C-C-H
  1569     1576         1     ; C-C-N-C
  1569     1580         1     ; C-C-N-C
  1570     1573         1     ; C-C-C-C
  1570     1575         1     ; C-C-C-N
  1570     1629         1     ; C-C-C-C
  1571     1574         1     ; C-C-C-C
  1571     1640         1     ; C-C-C-H
  1571     1665         1     ; C-C-C-H
  1571     1666         1     ; C-C-C-H
  1571     1667         1     ; C-C-C-H
  1572     1638         1     ; C-C-C-H
  1572     1575         1     ; C-C-C-N
  1573     1639         1     ; C-C-C-H
  1573     1665         1     ; C-C-C-H
  1573     1666         1     ; C-C-C-H
  1573     1667         1     ; C-C-C-H
  1573     1576         1     ; C-C-N-C
  1573     1580         1     ; C-C-N-C
  1574     1638         1     ; C-C-C-H
  1574     1629         1     ; C-C-C-C
  1574     1577         1     ; C-N-C-O
  1574     1578         1     ; C-N-C-C
  1574     1579         1     ; C-N-C-C
  1574     1581         1     ; C-N-C-O
  1575     1640         1     ; N-C-C-H
  1575     1585         1     ; N-C-C-C
  1575     1582         1     ; N-C-C-C
  1576     1581         1     ; C-N-C-O
  1576     1582         1     ; C-C-C-C
  1576     1584         1     ; C-C-C-C
  1576     1643         1     ; C-C-C-H
  1577     1580         1     ; O-C-N-C
  1577     1579         1     ; O-C-C-C
  1577     1585         1     ; O-C-C-C
  1578     1581         1     ; C-C-C-O
  1578     1583         1     ; C-C-C-C
  1578     1641         1     ; C-C-C-H
  1578     1642         1     ; C-C-C-H
  1579     1584         1     ; C-C-C-C
  1579     1643         1     ; C-C-C-H
  1579     1586         1     ; C-C-C-C
  1580     1585         1     ; C-C-C-C
  1580     1583         1     ; C-C-C-C
  1580     1641         1     ; C-C-C-H
  1581     1582         1     ; O-C-C-C
  1582     1585         1     ; C-C-C-C
  1582     1642         1     ; C-C-C-H
  1582     1587         1     ; C-C-C-O
  1582     1588         1     ; C-C-C-N
  1583     1643         1     ; C-C-C-H
  1583     1589         1     ; C-C-N-C
  1583     1644         1     ; C-C-N-H
  1584     1641         1     ; C-C-C-H
  1584     1587         1     ; C-C-C-O
  1584     1588         1     ; C-C-C-N
  1585     1586         1     ; C-C-C-C
  1586     1641         1     ; C-C-C-H
  1586     1642         1     ; C-C-C-H
  1586     1590         1     ; C-N-C-C
  1586     1594         1     ; C-N-C-C
  1587     1589         1     ; O-C-N-C
  1587     1644         1     ; O-C-N-H
  1588     1591         1     ; N-C-C-C
  1588     1645         1     ; N-C-C-H
  1588     1593         1     ; N-C-C-C
  1588     1648         1     ; N-C-C-H
  1589     1592         1     ; C-C-C-C
  1589     1646         1     ; C-C-C-H
  1589     1647         1     ; C-C-C-H
  1590     1644         1     ; C-C-N-H
  1590     1593         1     ; C-C-C-C
  1590     1648         1     ; C-C-C-H
  1590     1595         1     ; C-C-C-O
  1591     1594         1     ; C-C-C-C
  1591     1647         1     ; C-C-C-H
  1591     1596         1     ; C-C-O-C
  1592     1645         1     ; C-C-C-H
  1592     1648         1     ; C-C-C-H
  1592     1597         1     ; C-O-C-C
  1592     1601         1     ; C-O-C-C
  1593     1646         1     ; C-C-C-H
  1593     1596         1     ; C-C-O-C
  1594     1644         1     ; C-C-N-H
  1594     1645         1     ; C-C-C-H
  1594     1595         1     ; C-C-C-O
  1595     1646         1     ; O-C-C-H
  1595     1647         1     ; O-C-C-H
  1595     1598         1     ; O-C-C-C
  1595     1649         1     ; O-C-C-H
  1595     1600         1     ; O-C-C-C
  1595     1602         1     ; O-C-C-O
  1596     1599         1     ; C-C-C-C
  1596     1650         1     ; C-C-C-H
  1596     1652         1     ; C-C-C-H
  1596     1603         1     ; C-C-O-C
  1597     1600         1     ; C-C-C-C
  1597     1602         1     ; C-C-C-O
  1597     1651         1     ; C-C-C-H
  1598     1601         1     ; C-C-C-C
  1598     1652         1     ; C-C-C-H
  1599     1649         1     ; C-C-C-H
  1599     1602         1     ; C-C-C-O
  1600     1650         1     ; C-C-C-H
  1600     1603         1     ; C-C-O-C
  1601     1649         1     ; C-C-C-H
  1601     1651         1     ; C-C-C-H
  1601     1604         1     ; C-O-C-C
  1601     1608         1     ; C-O-C-C
  1602     1652         1     ; O-C-C-H
  1602     1605         1     ; O-C-C-C
  1602     1653         1     ; O-C-C-H
  1602     1607         1     ; O-C-C-C
  1602     1656         1     ; O-C-C-H
  1603     1606         1     ; C-C-C-C
  1603     1654         1     ; C-C-C-H
  1603     1655         1     ; C-C-C-H
  1604     1607         1     ; C-C-C-C
  1604     1656         1     ; C-C-C-H
  1604     1609         1     ; C-C-C-N
  1605     1608         1     ; C-C-C-C
  1605     1655         1     ; C-C-C-H
  1605     1610         1     ; C-C-N-C
  1605     1657         1     ; C-C-N-H
  1606     1653         1     ; C-C-C-H
  1606     1656         1     ; C-C-C-H
  1606     1611         1     ; C-N-C-O
  1606     1612         1     ; C-N-C-C
  1607     1654         1     ; C-C-C-H
  1607     1610         1     ; C-C-N-C
  1607     1657         1     ; C-C-N-H
  1608     1653         1     ; C-C-C-H
  1608     1609         1     ; C-C-C-N
  1609     1654         1     ; N-C-C-H
  1609     1655         1     ; N-C-C-H
  1609     1613         1     ; N-C-C-C
  1609     1617         1     ; N-C-C-C
  1610     1614         1     ; C-C-C-C
  1610     1658         1     ; C-C-C-H
  1610     1616         1     ; C-C-C-C
  1610     1661         1     ; C-C-C-H
  1611     1657         1     ; O-C-N-H
  1611     1613         1     ; O-C-C-C
  1611     1617         1     ; O-C-C-C
  1612     1657         1     ; C-C-N-H
  1612     1615         1     ; C-C-C-C
  1612     1659         1     ; C-C-C-H
  1612     1660         1     ; C-C-C-H
  1613     1616         1     ; C-C-C-C
  1613     1661         1     ; C-C-C-H
  1613     1618         1     ; C-C-C-N
  1614     1617         1     ; C-C-C-C
  1614     1660         1     ; C-C-C-H
  1614     1619         1     ; C-C-N-C
  1614     1623         1     ; C-C-N-C
  1615     1658         1     ; C-C-C-H
  1615     1661         1     ; C-C-C-H
  1615     1620         1     ; C-N-C-O
  1615     1621         1     ; C-N-C-C
  1615     1622         1     ; C-N-C-C
  1615     1624         1     ; C-N-C-O
  1616     1659         1     ; C-C-C-H
  1616     1619         1     ; C-C-N-C
  1616     1623         1     ; C-C-N-C
  1617     1658         1     ; C-C-C-H
  1617     1618         1     ; C-C-C-N
  1618     1659         1     ; N-C-C-H
  1618     1660         1     ; N-C-C-H
  1618     1628         1     ; N-C-C-C
  1618     1625         1     ; N-C-C-C
  1619     1624         1     ; C-N-C-O
  1619     1625         1     ; C-C-C-C
  1619     1627         1     ; C-C-C-C
  1619     1664         1     ; C-C-C-H
  1620     1623         1     ; O-C-N-C
  1620     1622         1     ; O-C-C-C
  1620     1628         1     ; O-C-C-C
  1621     1624         1     ; C-C-C-O
  1621     1626         1     ; C-C-C-C
  1621     1662         1     ; C-C-C-H
  1621     1663         1     ; C-C-C-H
  1622     1627         1     ; C-C-C-C
  1622     1664         1     ; C-C-C-H
  1622     1668         1     ; C-C-C-C
  1623     1628         1     ; C-C-C-C
  1623     1626         1     ; C-C-C-C
  1623     1662         1     ; C-C-C-H
  1624     1625         1     ; O-C-C-C
  1625     1628         1     ; C-C-C-C
  1625     1663         1     ; C-C-C-H
  1625     1669         1     ; C-C-C-C
  1625     1673         1     ; C-C-C-C
  1626     1664         1     ; C-C-C-H
  1626     1670         1     ; C-C-C-C
  1626     1750         1     ; C-C-C-H
  1626     1672         1     ; C-C-C-C
  1626     1752         1     ; C-C-C-H
  1627     1662         1     ; C-C-C-H
  1627     1669         1     ; C-C-C-C
  1627     1673         1     ; C-C-C-C
  1628     1668         1     ; C-C-C-C
  1629     1639         1     ; C-C-C-H
  1629     1640         1     ; C-C-C-H
  1630     1631         1     ; H-C-C-H
  1633     1634         1     ; H-C-C-H
  1635     1636         1     ; H-C-C-H
  1638     1639         1     ; H-C-C-H
  1642     1643         1     ; H-C-C-H
  1645     1646         1     ; H-C-C-H
  1647     1648         1     ; H-C-C-H
  1649     1650         1     ; H-C-C-H
  1650     1651         1     ; H-C-C-H
  1651     1652         1     ; H-C-C-H
  1653     1654         1     ; H-C-C-H
  1655     1656         1     ; H-C-C-H
  1658     1659         1     ; H-C-C-H
  1660     1661         1     ; H-C-C-H
  1662     1668         1     ; H-C-C-C
  1663     1668         1     ; H-C-C-C
  1663     1664         1     ; H-C-C-H
  1668     1671         1     ; C-C-C-C
  1668     1751         1     ; C-C-C-H
  1668     1674         1     ; C-C-C-C
  1669     1672         1     ; C-C-C-C
  1669     1752         1     ; C-C-C-H
  1669     1677         1     ; C-C-C-C
  1670     1673         1     ; C-C-C-C
  1670     1674         1     ; C-C-C-C
  1670     1676         1     ; C-C-C-N
  1670     1678         1     ; C-C-C-O
  1671     1750         1     ; C-C-C-H
  1671     1752         1     ; C-C-C-H
  1671     1675         1     ; C-C-C-O
  1671     1679         1     ; C-C-N-C
  1672     1751         1     ; C-C-C-H
  1672     1678         1     ; C-C-C-O
  1672     1679         1     ; C-C-N-C
  1673     1750         1     ; C-C-C-H
  1673     1677         1     ; C-C-C-C
  1673     1675         1     ; C-C-C-O
  1673     1676         1     ; C-C-C-N
  1674     1752         1     ; C-C-C-H
  1674     1678         1     ; C-N-C-O
  1674     1680         1     ; C-N-C-C
  1674     1684         1     ; C-N-C-C
  1675     1677         1     ; O-C-N-C
  1675     1679         1     ; O-C-N-C
  1676     1681         1     ; N-C-C-C
  1676     1753         1     ; N-C-C-H
  1676     1683         1     ; N-C-C-C
  1676     1756         1     ; N-C-C-H
  1677     1751         1     ; C-C-C-H
  1677     1680         1     ; C-N-C-C
  1677     1684         1     ; C-N-C-C
  1678     1679         1     ; O-C-N-C
  1679     1682         1     ; C-C-C-C
  1679     1754         1     ; C-C-C-H
  1679     1755         1     ; C-C-C-H
  1680     1683         1     ; C-C-C-C
  1680     1756         1     ; C-C-C-H
  1680     1685         1     ; C-C-C-N
  1681     1684         1     ; C-C-C-C
  1681     1755         1     ; C-C-C-H
  1681     1686         1     ; C-C-N-C
  1681     1757         1     ; C-C-N-H
  1682     1753         1     ; C-C-C-H
  1682     1756         1     ; C-C-C-H
  1682     1687         1     ; C-N-C-O
  1682     1688         1     ; C-N-C-C
  1683     1754         1     ; C-C-C-H
  1683     1686         1     ; C-C-N-C
  1683     1757         1     ; C-C-N-H
  1684     1753         1     ; C-C-C-H
  1684     1685         1     ; C-C-C-N
  1685     1754         1     ; N-C-C-H
  1685     1755         1     ; N-C-C-H
  1685     1689         1     ; N-C-C-C
  1685     1693         1     ; N-C-C-C
  1686     1690         1     ; C-C-C-C
  1686     1758         1     ; C-C-C-H
  1686     1692         1     ; C-C-C-C
  1686     1694         1     ; C-C-C-N
  1687     1757         1     ; O-C-N-H
  1687     1689         1     ; O-C-C-C
  1687     1693         1     ; O-C-C-C
  1688     1757         1     ; C-C-N-H
  1688     1691         1     ; C-C-C-C
  1688     1759         1     ; C-C-C-H
  1688     1760         1     ; C-C-C-H
  1688     1695         1     ; C-C-N-C
  1688     1699         1     ; C-C-N-C
  1689     1692         1     ; C-C-C-C
  1689     1694         1     ; C-C-C-N
  1689     1749         1     ; C-C-C-C
  1690     1693         1     ; C-C-C-C
  1690     1760         1     ; C-C-C-H
  1690     1785         1     ; C-C-C-H
  1690     1786         1     ; C-C-C-H
  1690     1787         1     ; C-C-C-H
  1691     1758         1     ; C-C-C-H
  1691     1694         1     ; C-C-C-N
  1692     1759         1     ; C-C-C-H
  1692     1785         1     ; C-C-C-H
  1692     1786         1     ; C-C-C-H
  1692     1787         1     ; C-C-C-H
  1692     1695         1     ; C-C-N-C
  1692     1699         1     ; C-C-N-C
  1693     1758         1     ; C-C-C-H
  1693     1749         1     ; C-C-C-C
  1693     1696         1     ; C-N-C-O
  1693     1697         1     ; C-N-C-C
  1693     1698         1     ; C-N-C-C
  1693     1700         1     ; C-N-C-O
  1694     1760         1     ; N-C-C-H
  1694     1704         1     ; N-C-C-C
  1694     1701         1     ; N-C-C-C
  1695     1700         1     ; C-N-C-O
  1695     1701         1     ; C-C-C-C
  1695     1703         1     ; C-C-C-C
  1695     1763         1     ; C-C-C-H
  1696     1699         1     ; O-C-N-C
  1696     1698         1     ; O-C-C-C
  1696     1704         1     ; O-C-C-C
  1697     1700         1     ; C-C-C-O
  1697     1702         1     ; C-C-C-C
  1697     1761         1     ; C-C-C-H
  1697     1762         1     ; C-C-C-H
  1698     1703         1     ; C-C-C-C
  1698     1763         1     ; C-C-C-H
  1698     1705         1     ; C-C-C-C
  1699     1704         1     ; C-C-C-C
  1699     1702         1     ; C-C-C-C
  1699     1761         1     ; C-C-C-H
  1700     1701         1     ; O-C-C-C
  1701     1704         1     ; C-C-C-C
  1701     1762         1     ; C-C-C-H
  1701     1706         1     ; C-C-C-O
  1701     1707         1     ; C-C-C-N
  1702     1763         1     ; C-C-C-H
  1702     1708         1     ; C-C-N-C
  1702     1764         1     ; C-C-N-H
  1703     1761         1     ; C-C-C-H
  1703     1706         1     ; C-C-C-O
  1703     1707         1     ; C-C-C-N
  1704     1705         1     ; C-C-C-C
  1705     1761         1     ; C-C-C-H
  1705     1762         1     ; C-C-C-H
  1705     1709         1     ; C-N-C-C
  1705     1713         1     ; C-N-C-C
  1706     1708         1     ; O-C-N-C
  1706     1764         1     ; O-C-N-H
  1707     1710         1     ; N-C-C-C
  1707     1765         1     ; N-C-C-H
  1707     1712         1     ; N-C-C-C
  1707     1768         1     ; N-C-C-H
  1708     1711         1     ; C-C-C-C
  1708     1766         1     ; C-C-C-H
  1708     1767         1     ; C-C-C-H
  1709     1764         1     ; C-C-N-H
  1709     1712         1     ; C-C-C-C
  1709     1768         1     ; C-C-C-H
  1709     1714         1     ; C-C-C-O
  1710     1713         1     ; C-C-C-C
  1710     1767         1     ; C-C-C-H
  1710     1715         1     ; C-C-O-C
  1711     1765         1     ; C-C-C-H
  1711     1768         1     ; C-C-C-H
  1711     1716         1     ; C-O-C-C
  1711     1720         1     ; C-O-C-C
  1712     1766         1     ; C-C-C-H
  1712     1715         1     ; C-C-O-C
  1713     1764         1     ; C-C-N-H
  1713     1765         1     ; C-C-C-H
  1713     1714         1     ; C-C-C-O
  1714     1766         1     ; O-C-C-H
  1714     1767         1     ; O-C-C-H
  1714     1717         1     ; O-C-C-C
  1714     1769         1     ; O-C-C-H
  1714     1719         1     ; O-C-C-C
  1714     1721         1     ; O-C-C-O
  1715     1718         1     ; C-C-C-C
  1715     1770         1     ; C-C-C-H
  1715     1772         1     ; C-C-C-H
  1715     1722         1     ; C-C-O-C
  1716     1719         1     ; C-C-C-C
  1716     1721         1     ; C-C-C-O
  1716     1771         1     ; C-C-C-H
  1717     1720         1     ; C-C-C-C
  1717     1772         1     ; C-C-C-H
  1718     1769         1     ; C-C-C-H
  1718     1721         1     ; C-C-C-O
  1719     1770         1     ; C-C-C-H
  1719     1722         1     ; C-C-O-C
  1720     1769         1     ; C-C-C-H
  1720     1771         1     ; C-C-C-H
  1720     1723         1     ; C-O-C-C
  1720     1727         1     ; C-O-C-C
  1721     1772         1     ; O-C-C-H
  1721     1724         1     ; O-C-C-C
  1721     1773         1     ; O-C-C-H
  1721     1726         1     ; O-C-C-C
  1721     1776         1     ; O-C-C-H
  1722     1725         1     ; C-C-C-C
  1722     1774         1     ; C-C-C-H
  1722     1775         1     ; C-C-C-H
  1723     1726         1     ; C-C-C-C
  1723     1776         1     ; C-C-C-H
  1723     1728         1     ; C-C-C-N
  1724     1727         1     ; C-C-C-C
  1724     1775         1     ; C-C-C-H
  1724     1729         1     ; C-C-N-C
  1724     1777         1     ; C-C-N-H
  1725     1773         1     ; C-C-C-H
  1725     1776         1     ; C-C-C-H
  1725     1730         1     ; C-N-C-O
  1725     1731         1     ; C-N-C-C
  1726     1774         1     ; C-C-C-H
  1726     1729         1     ; C-C-N-C
  1726     1777         1     ; C-C-N-H
  1727     1773         1     ; C-C-C-H
  1727     1728         1     ; C-C-C-N
  1728     1774         1     ; N-C-C-H
  1728     1775         1     ; N-C-C-H
  1728     1732         1     ; N-C-C-C
  1728     1736         1     ; N-C-C-C
  1729     1733         1     ; C-C-C-C
  1729     1778         1     ; C-C-C-H
  1729     1735         1     ; C-C-C-C
  1729     1781         1     ; C-C-C-H
  1730     1777         1     ; O-C-N-H
  1730     1732         1     ; O-C-C-C
  1730     1736         1     ; O-C-C-C
  1731     1777         1     ; C-C-N-H
  1731     1734         1     ; C-C-C-C
  1731     1779         1     ; C-C-C-H
  1731     1780         1     ; C-C-C-H
  1732     1735         1     ; C-C-C-C
  1732     1781         1     ; C-C-C-H
  1732     1737         1     ; C-C-C-N
  1733     1736         1     ; C-C-C-C
  1733     1780         1     ; C-C-C-H
  1733     1738         1     ; C-C-N-C
  1733     1742         1     ; C-C-N-C
  1734     1778         1     ; C-C-C-H
  1734     1781         1     ; C-C-C-H
  1734     1739         1     ; C-N-C-O
  1734     1740         1     ; C-N-C-C
  1734     1741         1     ; C-N-C-C
  1734     1743         1     ; C-N-C-O
  1735     1779         1     ; C-C-C-H
  1735     1738         1     ; C-C-N-C
  1735     1742         1     ; C-C-N-C
  1736     1778         1     ; C-C-C-H
  1736     1737         1     ; C-C-C-N
  1737     1779         1     ; N-C-C-H
  1737     1780         1     ; N-C-C-H
  1737     1747         1     ; N-C-C-C
  1737     1744         1     ; N-C-C-C
  1738     1743         1     ; C-N-C-O
  1738     1744         1     ; C-C-C-C
  1738     1746         1     ; C-C-C-C
  1738     1784         1     ; C-C-C-H
  1739     1742         1     ; O-C-N-C
  1739     1741         1     ; O-C-C-C
  1739     1747         1     ; O-C-C-C
  1740     1743         1     ; C-C-C-O
  1740     1745         1     ; C-C-C-C
  1740     1782         1     ; C-C-C-H
  1740     1783         1     ; C-C-C-H
  1741     1746         1     ; C-C-C-C
  1741     1784         1     ; C-C-C-H
  1741     1748         1     ; C-C-C-H
  1742     1747         1     ; C-C-C-C
  1742     1745         1     ; C-C-C-C
  1742     1782         1     ; C-C-C-H
  1743     1744         1     ; O-C-C-C
  1744     1747         1     ; C-C-C-C
  1744     1783         1     ; C-C-C-H
  1745     1784         1     ; C-C-C-H
  1746     1782         1     ; C-C-C-H
  1747     1748         1     ; C-C-C-H
  1748     1782         1     ; H-C-C-H
  1748     1783         1     ; H-C-C-H
  1749     1759         1     ; C-C-C-H
  1749     1760         1     ; C-C-C-H
  1750     1751         1     ; H-C-C-H
  1753     1754         1     ; H-C-C-H
  1755     1756         1     ; H-C-C-H
  1758     1759         1     ; H-C-C-H
  1762     1763         1     ; H-C-C-H
  1765     1766         1     ; H-C-C-H
  1767     1768         1     ; H-C-C-H
  1769     1770         1     ; H-C-C-H
  1770     1771         1     ; H-C-C-H
  1771     1772         1     ; H-C-C-H
  1773     1774         1     ; H-C-C-H
  1775     1776         1     ; H-C-C-H
  1778     1779         1     ; H-C-C-H
  1780     1781         1     ; H-C-C-H
  1783     1784         1     ; H-C-C-H
 
[ dihedrals ] ; impropers
; atom_i   atom_j   atom_k   atom_l  functype  phase (Deg.)  kd (kJ/mol)  pn
     1        3        2        7         4       180.000       4.60240    2     ; H-C-C-C, prebuilt X-X-ca-ha
     2        4        3       83         4       180.000       4.60240    2     ; C-C-C-H, prebuilt X-X-ca-ha
     3        5        4       84         4       180.000       4.60240    2     ; C-C-C-H, prebuilt X-X-ca-ha
     4        6        5       11         4       180.000       4.60240    2     ; C-C-C-C, guess (same as GAFF X -X -ca-ha)
     5        7        6        8         4       180.000       4.60240    2     ; C-C-C-C, guess (same as GAFF X -X -ca-ha)
     2        6        7       85         4       180.000       4.60240    2     ; C-C-C-H, prebuilt X-X-ca-ha
     6        9        8       10         4       180.000      43.93200    2     ; C-O-C-N, prebuilt X-X-c-o
     8       11       10       13         4       180.000       4.60240    2     ; C-C-N-C, guess (same as GAFF X -X -ca-ha)
     5       10       11       12         4       180.000      43.93200    2     ; C-N-C-O, prebuilt X-X-c-o
    10       14       13       18         4       180.000       4.60240    2     ; N-C-C-C, guess (same as GAFF X -X -ca-ha)
    13       15       14       86         4       180.000       4.60240    2     ; C-C-C-H, prebuilt X-X-ca-ha
    14       16       15       87         4       180.000       4.60240    2     ; C-C-C-H, prebuilt X-X-ca-ha
    15       17       16       19         4       180.000       4.60240    2     ; C-C-C-N, guess (same as GAFF X -X -ca-ha)
    16       18       17       88         4       180.000       4.60240    2     ; C-C-C-H, prebuilt X-X-ca-ha
    13       17       18       89         4       180.000       4.60240    2     ; C-C-C-H, prebuilt X-X-ca-ha
    16       20       19       90         4       180.000       4.60240    2     ; C-C-N-H, prebuilt X-X-n-hn
    19       21       20       22         4       180.000      43.93200    2     ; N-O-C-C, prebuilt X-X-c-o
    20       23       22       27         4       180.000       4.60240    2     ; C-C-C-C, guess (same as GAFF X -X -ca-ha)
    22       24       23       91         4       180.000       4.60240    2     ; C-C-C-H, prebuilt X-X-ca-ha
    23       25       24       92         4       180.000       4.60240    2     ; C-C-C-H, prebuilt X-X-ca-ha
    24       26       25       82         4       180.000       4.60240    2     ; C-C-C-C, prebuilt ca-ca-ca-c3
    25       27       26       93         4       180.000       4.60240    2     ; C-C-C-H, prebuilt X-X-ca-ha
    22       26       27       28         4       180.000       4.60240    2     ; C-C-C-N, guess (same as GAFF X -X -ca-ha)
    27       29       28       33         4       180.000       4.60240    2     ; C-C-N-C, guess (same as GAFF X -X -ca-ha)
    28       30       29       31         4       180.000      43.93200    2     ; N-O-C-C, prebuilt X-X-c-o
    29       32       31       38         4       180.000       4.60240    2     ; C-C-C-C, guess (same as GAFF X -X -ca-ha)
    31       33       32       35         4       180.000       4.60240    2     ; C-C-C-C, guess (same as GAFF X -X -ca-ha)
    28       32       33       34         4       180.000      43.93200    2     ; N-C-C-O, prebuilt X-X-c-o
    32       36       35       94         4       180.000       4.60240    2     ; C-C-C-H, prebuilt X-X-ca-ha
    35       37       36       39         4       180.000       4.60240    2     ; C-C-C-C, guess (same as GAFF X -X -ca-ha)
    36       38       37       95         4       180.000       4.60240    2     ; C-C-C-H, prebuilt X-X-ca-ha
    31       37       38       96         4       180.000       4.60240    2     ; C-C-C-H, prebuilt X-X-ca-ha
    36       40       39       41         4       180.000      43.93200    2     ; C-O-C-N, prebuilt X-X-c-o
    39       42       41       97         4       180.000       4.60240    2     ; C-C-N-H, prebuilt X-X-n-hn
    41       43       42       47         4       180.000       4.60240    2     ; N-C-C-C, guess (same as GAFF X -X -ca-ha)
    42       44       43       98         4       180.000       4.60240    2     ; C-C-C-H, prebuilt X-X-ca-ha
    43       45       44       99         4       180.000       4.60240    2     ; C-C-C-H, prebuilt X-X-ca-ha
    44       46       45       48         4       180.000       4.60240    2     ; C-C-C-O, guess (same as GAFF X -X -ca-ha)
    45       47       46      100         4       180.000       4.60240    2     ; C-C-C-H, prebuilt X-X-ca-ha
    42       46       47      101         4       180.000       4.60240    2     ; C-C-C-H, prebuilt X-X-ca-ha
    48       50       49       54         4       180.000       4.60240    2     ; O-C-C-C, guess (same as GAFF X -X -ca-ha)
    49       51       50      102         4       180.000       4.60240    2     ; C-C-C-H, prebuilt X-X-ca-ha
    50       52       51      103         4       180.000       4.60240    2     ; C-C-C-H, prebuilt X-X-ca-ha
    51       53       52      104         4       180.000       4.60240    2     ; C-C-C-H, prebuilt X-X-ca-ha
    52       54       53      105         4       180.000       4.60240    2     ; C-C-C-H, prebuilt X-X-ca-ha
    49       53       54       55         4       180.000       4.60240    2     ; C-C-C-O, guess (same as GAFF X -X -ca-ha)
    55       57       56       61         4       180.000       4.60240    2     ; O-C-C-C, guess (same as GAFF X -X -ca-ha)
    56       58       57      106         4       180.000       4.60240    2     ; C-C-C-H, prebuilt X-X-ca-ha
    57       59       58      107         4       180.000       4.60240    2     ; C-C-C-H, prebuilt X-X-ca-ha
    58       60       59       62         4       180.000       4.60240    2     ; C-C-C-N, guess (same as GAFF X -X -ca-ha)
    59       61       60      108         4       180.000       4.60240    2     ; C-C-C-H, prebuilt X-X-ca-ha
    56       60       61      109         4       180.000       4.60240    2     ; C-C-C-H, prebuilt X-X-ca-ha
    59       63       62      110         4       180.000       4.60240    2     ; C-C-N-H, prebuilt X-X-n-hn
    62       64       63       65         4       180.000      43.93200    2     ; N-O-C-C, prebuilt X-X-c-o
    63       66       65       70         4       180.000       4.60240    2     ; C-C-C-C, guess (same as GAFF X -X -ca-ha)
    65       67       66      111         4       180.000       4.60240    2     ; C-C-C-H, prebuilt X-X-ca-ha
    66       68       67      112         4       180.000       4.60240    2     ; C-C-C-H, prebuilt X-X-ca-ha
    67       69       68       71         4       180.000       4.60240    2     ; C-C-C-N, guess (same as GAFF X -X -ca-ha)
    68       70       69      113         4       180.000       4.60240    2     ; C-C-C-H, prebuilt X-X-ca-ha
    65       69       70      114         4       180.000       4.60240    2     ; C-C-C-H, prebuilt X-X-ca-ha
    68       72       71       76         4       180.000       4.60240    2     ; C-C-N-C, guess (same as GAFF X -X -ca-ha)
    71       73       72       74         4       180.000      43.93200    2     ; N-O-C-C, prebuilt X-X-c-o
    72       75       74       81         4       180.000       4.60240    2     ; C-C-C-C, guess (same as GAFF X -X -ca-ha)
    74       76       75       78         4       180.000       4.60240    2     ; C-C-C-C, guess (same as GAFF X -X -ca-ha)
    71       75       76       77         4       180.000      43.93200    2     ; N-C-C-O, prebuilt X-X-c-o
    75       79       78      115         4       180.000       4.60240    2     ; C-C-C-H, prebuilt X-X-ca-ha
    79       81       80      116         4       180.000       4.60240    2     ; C-C-C-H, prebuilt X-X-ca-ha
    74       80       81      117         4       180.000       4.60240    2     ; C-C-C-H, prebuilt X-X-ca-ha
   121      123      122      202         4       180.000       4.60240    2     ; C-C-C-H, prebuilt X-X-ca-ha
   122      124      123      203         4       180.000       4.60240    2     ; C-C-C-H, prebuilt X-X-ca-ha
   123      125      124      130         4       180.000       4.60240    2     ; C-C-C-C, guess (same as GAFF X -X -ca-ha)
   124      126      125      127         4       180.000       4.60240    2     ; C-C-C-C, guess (same as GAFF X -X -ca-ha)
   121      125      126      204         4       180.000       4.60240    2     ; C-C-C-H, prebuilt X-X-ca-ha
   125      128      127      129         4       180.000      43.93200    2     ; C-O-C-N, prebuilt X-X-c-o
   127      130      129      132         4       180.000       4.60240    2     ; C-C-N-C, guess (same as GAFF X -X -ca-ha)
   124      129      130      131         4       180.000      43.93200    2     ; C-N-C-O, prebuilt X-X-c-o
   129      133      132      137         4       180.000       4.60240    2     ; N-C-C-C, guess (same as GAFF X -X -ca-ha)
   132      134      133      205         4       180.000       4.60240    2     ; C-C-C-H, prebuilt X-X-ca-ha
   133      135      134      206         4       180.000       4.60240    2     ; C-C-C-H, prebuilt X-X-ca-ha
   134      136      135      138         4       180.000       4.60240    2     ; C-C-C-N, guess (same as GAFF X -X -ca-ha)
   135      137      136      207         4       180.000       4.60240    2     ; C-C-C-H, prebuilt X-X-ca-ha
   132      136      137      208         4       180.000       4.60240    2     ; C-C-C-H, prebuilt X-X-ca-ha
   135      139      138      209         4       180.000       4.60240    2     ; C-C-N-H, prebuilt X-X-n-hn
   138      140      139      141         4       180.000      43.93200    2     ; N-O-C-C, prebuilt X-X-c-o
   139      142      141      146         4       180.000       4.60240    2     ; C-C-C-C, guess (same as GAFF X -X -ca-ha)
   141      143      142      210         4       180.000       4.60240    2     ; C-C-C-H, prebuilt X-X-ca-ha
   142      144      143      211         4       180.000       4.60240    2     ; C-C-C-H, prebuilt X-X-ca-ha
   143      145      144      201         4       180.000       4.60240    2     ; C-C-C-C, prebuilt ca-ca-ca-c3
   144      146      145      212         4       180.000       4.60240    2     ; C-C-C-H, prebuilt X-X-ca-ha
   141      145      146      147         4       180.000       4.60240    2     ; C-C-C-N, guess (same as GAFF X -X -ca-ha)
   146      148      147      152         4       180.000       4.60240    2     ; C-C-N-C, guess (same as GAFF X -X -ca-ha)
   147      149      148      150         4       180.000      43.93200    2     ; N-O-C-C, prebuilt X-X-c-o
   148      151      150      157         4       180.000       4.60240    2     ; C-C-C-C, guess (same as GAFF X -X -ca-ha)
   150      152      151      154         4       180.000       4.60240    2     ; C-C-C-C, guess (same as GAFF X -X -ca-ha)
   147      151      152      153         4       180.000      43.93200    2     ; N-C-C-O, prebuilt X-X-c-o
   151      155      154      213         4       180.000       4.60240    2     ; C-C-C-H, prebuilt X-X-ca-ha
   154      156      155      158         4       180.000       4.60240    2     ; C-C-C-C, guess (same as GAFF X -X -ca-ha)
   155      157      156      214         4       180.000       4.60240    2     ; C-C-C-H, prebuilt X-X-ca-ha
   150      156      157      215         4       180.000       4.60240    2     ; C-C-C-H, prebuilt X-X-ca-ha
   155      159      158      160         4       180.000      43.93200    2     ; C-O-C-N, prebuilt X-X-c-o
   158      161      160      216         4       180.000       4.60240    2     ; C-C-N-H, prebuilt X-X-n-hn
   160      162      161      166         4       180.000       4.60240    2     ; N-C-C-C, guess (same as GAFF X -X -ca-ha)
   161      163      162      217         4       180.000       4.60240    2     ; C-C-C-H, prebuilt X-X-ca-ha
   162      164      163      218         4       180.000       4.60240    2     ; C-C-C-H, prebuilt X-X-ca-ha
   163      165      164      167         4       180.000       4.60240    2     ; C-C-C-O, guess (same as GAFF X -X -ca-ha)
   164      166      165      219         4       180.000       4.60240    2     ; C-C-C-H, prebuilt X-X-ca-ha
   161      165      166      220         4       180.000       4.60240    2     ; C-C-C-H, prebuilt X-X-ca-ha
   167      169      168      173         4       180.000       4.60240    2     ; O-C-C-C, guess (same as GAFF X -X -ca-ha)
   168      170      169      221         4       180.000       4.60240    2     ; C-C-C-H, prebuilt X-X-ca-ha
   169      171      170      222         4       180.000       4.60240    2     ; C-C-C-H, prebuilt X-X-ca-ha
   170      172      171      223         4       180.000       4.60240    2     ; C-C-C-H, prebuilt X-X-ca-ha
   171      173      172      224         4       180.000       4.60240    2     ; C-C-C-H, prebuilt X-X-ca-ha
   168      172      173      174         4       180.000       4.60240    2     ; C-C-C-O, guess (same as GAFF X -X -ca-ha)
   174      176      175      180         4       180.000       4.60240    2     ; O-C-C-C, guess (same as GAFF X -X -ca-ha)
   175      177      176      225         4       180.000       4.60240    2     ; C-C-C-H, prebuilt X-X-ca-ha
   176      178      177      226         4       180.000       4.60240    2     ; C-C-C-H, prebuilt X-X-ca-ha
   177      179      178      181         4       180.000       4.60240    2     ; C-C-C-N, guess (same as GAFF X -X -ca-ha)
   178      180      179      227         4       180.000       4.60240    2     ; C-C-C-H, prebuilt X-X-ca-ha
   175      179      180      228         4       180.000       4.60240    2     ; C-C-C-H, prebuilt X-X-ca-ha
   178      182      181      229         4       180.000       4.60240    2     ; C-C-N-H, prebuilt X-X-n-hn
   181      183      182      184         4       180.000      43.93200    2     ; N-O-C-C, prebuilt X-X-c-o
   182      185      184      189         4       180.000       4.60240    2     ; C-C-C-C, guess (same as GAFF X -X -ca-ha)
   184      186      185      230         4       180.000       4.60240    2     ; C-C-C-H, prebuilt X-X-ca-ha
   185      187      186      231         4       180.000       4.60240    2     ; C-C-C-H, prebuilt X-X-ca-ha
   186      188      187      190         4       180.000       4.60240    2     ; C-C-C-N, guess (same as GAFF X -X -ca-ha)
   187      189      188      232         4       180.000       4.60240    2     ; C-C-C-H, prebuilt X-X-ca-ha
   184      188      189      233         4       180.000       4.60240    2     ; C-C-C-H, prebuilt X-X-ca-ha
   187      191      190      195         4       180.000       4.60240    2     ; C-C-N-C, guess (same as GAFF X -X -ca-ha)
   190      192      191      193         4       180.000      43.93200    2     ; N-O-C-C, prebuilt X-X-c-o
   191      194      193      200         4       180.000       4.60240    2     ; C-C-C-C, guess (same as GAFF X -X -ca-ha)
   193      195      194      197         4       180.000       4.60240    2     ; C-C-C-C, guess (same as GAFF X -X -ca-ha)
   190      194      195      196         4       180.000      43.93200    2     ; N-C-C-O, prebuilt X-X-c-o
   194      198      197      234         4       180.000       4.60240    2     ; C-C-C-H, prebuilt X-X-ca-ha
   198      200      199      235         4       180.000       4.60240    2     ; C-C-C-H, prebuilt X-X-ca-ha
   193      199      200      236         4       180.000       4.60240    2     ; C-C-C-H, prebuilt X-X-ca-ha
   240      242      241      321         4       180.000       4.60240    2     ; C-C-C-H, prebuilt X-X-ca-ha
   241      243      242      322         4       180.000       4.60240    2     ; C-C-C-H, prebuilt X-X-ca-ha
   242      244      243      249         4       180.000       4.60240    2     ; C-C-C-C, guess (same as GAFF X -X -ca-ha)
   243      245      244      246         4       180.000       4.60240    2     ; C-C-C-C, guess (same as GAFF X -X -ca-ha)
   240      244      245      323         4       180.000       4.60240    2     ; C-C-C-H, prebuilt X-X-ca-ha
   244      247      246      248         4       180.000      43.93200    2     ; C-O-C-N, prebuilt X-X-c-o
   246      249      248      251         4       180.000       4.60240    2     ; C-C-N-C, guess (same as GAFF X -X -ca-ha)
   243      248      249      250         4       180.000      43.93200    2     ; C-N-C-O, prebuilt X-X-c-o
   248      252      251      256         4       180.000       4.60240    2     ; N-C-C-C, guess (same as GAFF X -X -ca-ha)
   251      253      252      324         4       180.000       4.60240    2     ; C-C-C-H, prebuilt X-X-ca-ha
   252      254      253      325         4       180.000       4.60240    2     ; C-C-C-H, prebuilt X-X-ca-ha
   253      255      254      257         4       180.000       4.60240    2     ; C-C-C-N, guess (same as GAFF X -X -ca-ha)
   254      256      255      326         4       180.000       4.60240    2     ; C-C-C-H, prebuilt X-X-ca-ha
   251      255      256      327         4       180.000       4.60240    2     ; C-C-C-H, prebuilt X-X-ca-ha
   254      258      257      328         4       180.000       4.60240    2     ; C-C-N-H, prebuilt X-X-n-hn
   257      259      258      260         4       180.000      43.93200    2     ; N-O-C-C, prebuilt X-X-c-o
   258      261      260      265         4       180.000       4.60240    2     ; C-C-C-C, guess (same as GAFF X -X -ca-ha)
   260      262      261      329         4       180.000       4.60240    2     ; C-C-C-H, prebuilt X-X-ca-ha
   261      263      262      330         4       180.000       4.60240    2     ; C-C-C-H, prebuilt X-X-ca-ha
   262      264      263      320         4       180.000       4.60240    2     ; C-C-C-C, prebuilt ca-ca-ca-c3
   263      265      264      331         4       180.000       4.60240    2     ; C-C-C-H, prebuilt X-X-ca-ha
   260      264      265      266         4       180.000       4.60240    2     ; C-C-C-N, guess (same as GAFF X -X -ca-ha)
   265      267      266      271         4       180.000       4.60240    2     ; C-C-N-C, guess (same as GAFF X -X -ca-ha)
   266      268      267      269         4       180.000      43.93200    2     ; N-O-C-C, prebuilt X-X-c-o
   267      270      269      276         4       180.000       4.60240    2     ; C-C-C-C, guess (same as GAFF X -X -ca-ha)
   269      271      270      273         4       180.000       4.60240    2     ; C-C-C-C, guess (same as GAFF X -X -ca-ha)
   266      270      271      272         4       180.000      43.93200    2     ; N-C-C-O, prebuilt X-X-c-o
   270      274      273      332         4       180.000       4.60240    2     ; C-C-C-H, prebuilt X-X-ca-ha
   273      275      274      277         4       180.000       4.60240    2     ; C-C-C-C, guess (same as GAFF X -X -ca-ha)
   274      276      275      333         4       180.000       4.60240    2     ; C-C-C-H, prebuilt X-X-ca-ha
   269      275      276      334         4       180.000       4.60240    2     ; C-C-C-H, prebuilt X-X-ca-ha
   274      278      277      279         4       180.000      43.93200    2     ; C-O-C-N, prebuilt X-X-c-o
   277      280      279      335         4       180.000       4.60240    2     ; C-C-N-H, prebuilt X-X-n-hn
   279      281      280      285         4       180.000       4.60240    2     ; N-C-C-C, guess (same as GAFF X -X -ca-ha)
   280      282      281      336         4       180.000       4.60240    2     ; C-C-C-H, prebuilt X-X-ca-ha
   281      283      282      337         4       180.000       4.60240    2     ; C-C-C-H, prebuilt X-X-ca-ha
   282      284      283      286         4       180.000       4.60240    2     ; C-C-C-O, guess (same as GAFF X -X -ca-ha)
   283      285      284      338         4       180.000       4.60240    2     ; C-C-C-H, prebuilt X-X-ca-ha
   280      284      285      339         4       180.000       4.60240    2     ; C-C-C-H, prebuilt X-X-ca-ha
   286      288      287      292         4       180.000       4.60240    2     ; O-C-C-C, guess (same as GAFF X -X -ca-ha)
   287      289      288      340         4       180.000       4.60240    2     ; C-C-C-H, prebuilt X-X-ca-ha
   288      290      289      341         4       180.000       4.60240    2     ; C-C-C-H, prebuilt X-X-ca-ha
   289      291      290      342         4       180.000       4.60240    2     ; C-C-C-H, prebuilt X-X-ca-ha
   290      292      291      343         4       180.000       4.60240    2     ; C-C-C-H, prebuilt X-X-ca-ha
   287      291      292      293         4       180.000       4.60240    2     ; C-C-C-O, guess (same as GAFF X -X -ca-ha)
   293      295      294      299         4       180.000       4.60240    2     ; O-C-C-C, guess (same as GAFF X -X -ca-ha)
   294      296      295      344         4       180.000       4.60240    2     ; C-C-C-H, prebuilt X-X-ca-ha
   295      297      296      345         4       180.000       4.60240    2     ; C-C-C-H, prebuilt X-X-ca-ha
   296      298      297      300         4       180.000       4.60240    2     ; C-C-C-N, guess (same as GAFF X -X -ca-ha)
   297      299      298      346         4       180.000       4.60240    2     ; C-C-C-H, prebuilt X-X-ca-ha
   294      298      299      347         4       180.000       4.60240    2     ; C-C-C-H, prebuilt X-X-ca-ha
   297      301      300      348         4       180.000       4.60240    2     ; C-C-N-H, prebuilt X-X-n-hn
   300      302      301      303         4       180.000      43.93200    2     ; N-O-C-C, prebuilt X-X-c-o
   301      304      303      308         4       180.000       4.60240    2     ; C-C-C-C, guess (same as GAFF X -X -ca-ha)
   303      305      304      349         4       180.000       4.60240    2     ; C-C-C-H, prebuilt X-X-ca-ha
   304      306      305      350         4       180.000       4.60240    2     ; C-C-C-H, prebuilt X-X-ca-ha
   305      307      306      309         4       180.000       4.60240    2     ; C-C-C-N, guess (same as GAFF X -X -ca-ha)
   306      308      307      351         4       180.000       4.60240    2     ; C-C-C-H, prebuilt X-X-ca-ha
   303      307      308      352         4       180.000       4.60240    2     ; C-C-C-H, prebuilt X-X-ca-ha
   306      310      309      314         4       180.000       4.60240    2     ; C-C-N-C, guess (same as GAFF X -X -ca-ha)
   309      311      310      312         4       180.000      43.93200    2     ; N-O-C-C, prebuilt X-X-c-o
   310      313      312      319         4       180.000       4.60240    2     ; C-C-C-C, guess (same as GAFF X -X -ca-ha)
   312      314      313      316         4       180.000       4.60240    2     ; C-C-C-C, guess (same as GAFF X -X -ca-ha)
   309      313      314      315         4       180.000      43.93200    2     ; N-C-C-O, prebuilt X-X-c-o
   313      317      316      353         4       180.000       4.60240    2     ; C-C-C-H, prebuilt X-X-ca-ha
   317      319      318      354         4       180.000       4.60240    2     ; C-C-C-H, prebuilt X-X-ca-ha
   312      318      319      355         4       180.000       4.60240    2     ; C-C-C-H, prebuilt X-X-ca-ha
   359      361      360      440         4       180.000       4.60240    2     ; C-C-C-H, prebuilt X-X-ca-ha
   360      362      361      441         4       180.000       4.60240    2     ; C-C-C-H, prebuilt X-X-ca-ha
   361      363      362      368         4       180.000       4.60240    2     ; C-C-C-C, guess (same as GAFF X -X -ca-ha)
   362      364      363      365         4       180.000       4.60240    2     ; C-C-C-C, guess (same as GAFF X -X -ca-ha)
   359      363      364      442         4       180.000       4.60240    2     ; C-C-C-H, prebuilt X-X-ca-ha
   363      366      365      367         4       180.000      43.93200    2     ; C-O-C-N, prebuilt X-X-c-o
   365      368      367      370         4       180.000       4.60240    2     ; C-C-N-C, guess (same as GAFF X -X -ca-ha)
   362      367      368      369         4       180.000      43.93200    2     ; C-N-C-O, prebuilt X-X-c-o
   367      371      370      375         4       180.000       4.60240    2     ; N-C-C-C, guess (same as GAFF X -X -ca-ha)
   370      372      371      443         4       180.000       4.60240    2     ; C-C-C-H, prebuilt X-X-ca-ha
   371      373      372      444         4       180.000       4.60240    2     ; C-C-C-H, prebuilt X-X-ca-ha
   372      374      373      376         4       180.000       4.60240    2     ; C-C-C-N, guess (same as GAFF X -X -ca-ha)
   373      375      374      445         4       180.000       4.60240    2     ; C-C-C-H, prebuilt X-X-ca-ha
   370      374      375      446         4       180.000       4.60240    2     ; C-C-C-H, prebuilt X-X-ca-ha
   373      377      376      447         4       180.000       4.60240    2     ; C-C-N-H, prebuilt X-X-n-hn
   376      378      377      379         4       180.000      43.93200    2     ; N-O-C-C, prebuilt X-X-c-o
   377      380      379      384         4       180.000       4.60240    2     ; C-C-C-C, guess (same as GAFF X -X -ca-ha)
   379      381      380      448         4       180.000       4.60240    2     ; C-C-C-H, prebuilt X-X-ca-ha
   380      382      381      449         4       180.000       4.60240    2     ; C-C-C-H, prebuilt X-X-ca-ha
   381      383      382      439         4       180.000       4.60240    2     ; C-C-C-C, prebuilt ca-ca-ca-c3
   382      384      383      450         4       180.000       4.60240    2     ; C-C-C-H, prebuilt X-X-ca-ha
   379      383      384      385         4       180.000       4.60240    2     ; C-C-C-N, guess (same as GAFF X -X -ca-ha)
   384      386      385      390         4       180.000       4.60240    2     ; C-C-N-C, guess (same as GAFF X -X -ca-ha)
   385      387      386      388         4       180.000      43.93200    2     ; N-O-C-C, prebuilt X-X-c-o
   386      389      388      395         4       180.000       4.60240    2     ; C-C-C-C, guess (same as GAFF X -X -ca-ha)
   388      390      389      392         4       180.000       4.60240    2     ; C-C-C-C, guess (same as GAFF X -X -ca-ha)
   385      389      390      391         4       180.000      43.93200    2     ; N-C-C-O, prebuilt X-X-c-o
   389      393      392      451         4       180.000       4.60240    2     ; C-C-C-H, prebuilt X-X-ca-ha
   392      394      393      396         4       180.000       4.60240    2     ; C-C-C-C, guess (same as GAFF X -X -ca-ha)
   393      395      394      452         4       180.000       4.60240    2     ; C-C-C-H, prebuilt X-X-ca-ha
   388      394      395      453         4       180.000       4.60240    2     ; C-C-C-H, prebuilt X-X-ca-ha
   393      397      396      398         4       180.000      43.93200    2     ; C-O-C-N, prebuilt X-X-c-o
   396      399      398      454         4       180.000       4.60240    2     ; C-C-N-H, prebuilt X-X-n-hn
   398      400      399      404         4       180.000       4.60240    2     ; N-C-C-C, guess (same as GAFF X -X -ca-ha)
   399      401      400      455         4       180.000       4.60240    2     ; C-C-C-H, prebuilt X-X-ca-ha
   400      402      401      456         4       180.000       4.60240    2     ; C-C-C-H, prebuilt X-X-ca-ha
   401      403      402      405         4       180.000       4.60240    2     ; C-C-C-O, guess (same as GAFF X -X -ca-ha)
   402      404      403      457         4       180.000       4.60240    2     ; C-C-C-H, prebuilt X-X-ca-ha
   399      403      404      458         4       180.000       4.60240    2     ; C-C-C-H, prebuilt X-X-ca-ha
   405      407      406      411         4       180.000       4.60240    2     ; O-C-C-C, guess (same as GAFF X -X -ca-ha)
   406      408      407      459         4       180.000       4.60240    2     ; C-C-C-H, prebuilt X-X-ca-ha
   407      409      408      460         4       180.000       4.60240    2     ; C-C-C-H, prebuilt X-X-ca-ha
   408      410      409      461         4       180.000       4.60240    2     ; C-C-C-H, prebuilt X-X-ca-ha
   409      411      410      462         4       180.000       4.60240    2     ; C-C-C-H, prebuilt X-X-ca-ha
   406      410      411      412         4       180.000       4.60240    2     ; C-C-C-O, guess (same as GAFF X -X -ca-ha)
   412      414      413      418         4       180.000       4.60240    2     ; O-C-C-C, guess (same as GAFF X -X -ca-ha)
   413      415      414      463         4       180.000       4.60240    2     ; C-C-C-H, prebuilt X-X-ca-ha
   414      416      415      464         4       180.000       4.60240    2     ; C-C-C-H, prebuilt X-X-ca-ha
   415      417      416      419         4       180.000       4.60240    2     ; C-C-C-N, guess (same as GAFF X -X -ca-ha)
   416      418      417      465         4       180.000       4.60240    2     ; C-C-C-H, prebuilt X-X-ca-ha
   413      417      418      466         4       180.000       4.60240    2     ; C-C-C-H, prebuilt X-X-ca-ha
   416      420      419      467         4       180.000       4.60240    2     ; C-C-N-H, prebuilt X-X-n-hn
   419      421      420      422         4       180.000      43.93200    2     ; N-O-C-C, prebuilt X-X-c-o
   420      423      422      427         4       180.000       4.60240    2     ; C-C-C-C, guess (same as GAFF X -X -ca-ha)
   422      424      423      468         4       180.000       4.60240    2     ; C-C-C-H, prebuilt X-X-ca-ha
   423      425      424      469         4       180.000       4.60240    2     ; C-C-C-H, prebuilt X-X-ca-ha
   424      426      425      428         4       180.000       4.60240    2     ; C-C-C-N, guess (same as GAFF X -X -ca-ha)
   425      427      426      470         4       180.000       4.60240    2     ; C-C-C-H, prebuilt X-X-ca-ha
   422      426      427      471         4       180.000       4.60240    2     ; C-C-C-H, prebuilt X-X-ca-ha
   425      429      428      433         4       180.000       4.60240    2     ; C-C-N-C, guess (same as GAFF X -X -ca-ha)
   428      430      429      431         4       180.000      43.93200    2     ; N-O-C-C, prebuilt X-X-c-o
   429      432      431      438         4       180.000       4.60240    2     ; C-C-C-C, guess (same as GAFF X -X -ca-ha)
   431      433      432      435         4       180.000       4.60240    2     ; C-C-C-C, guess (same as GAFF X -X -ca-ha)
   428      432      433      434         4       180.000      43.93200    2     ; N-C-C-O, prebuilt X-X-c-o
   432      436      435      472         4       180.000       4.60240    2     ; C-C-C-H, prebuilt X-X-ca-ha
   436      438      437      473         4       180.000       4.60240    2     ; C-C-C-H, prebuilt X-X-ca-ha
   431      437      438      474         4       180.000       4.60240    2     ; C-C-C-H, prebuilt X-X-ca-ha
   478      480      479      559         4       180.000       4.60240    2     ; C-C-C-H, prebuilt X-X-ca-ha
   479      481      480      560         4       180.000       4.60240    2     ; C-C-C-H, prebuilt X-X-ca-ha
   480      482      481      487         4       180.000       4.60240    2     ; C-C-C-C, guess (same as GAFF X -X -ca-ha)
   481      483      482      484         4       180.000       4.60240    2     ; C-C-C-C, guess (same as GAFF X -X -ca-ha)
   478      482      483      561         4       180.000       4.60240    2     ; C-C-C-H, prebuilt X-X-ca-ha
   482      485      484      486         4       180.000      43.93200    2     ; C-O-C-N, prebuilt X-X-c-o
   484      487      486      489         4       180.000       4.60240    2     ; C-C-N-C, guess (same as GAFF X -X -ca-ha)
   481      486      487      488         4       180.000      43.93200    2     ; C-N-C-O, prebuilt X-X-c-o
   486      490      489      494         4       180.000       4.60240    2     ; N-C-C-C, guess (same as GAFF X -X -ca-ha)
   489      491      490      562         4       180.000       4.60240    2     ; C-C-C-H, prebuilt X-X-ca-ha
   490      492      491      563         4       180.000       4.60240    2     ; C-C-C-H, prebuilt X-X-ca-ha
   491      493      492      495         4       180.000       4.60240    2     ; C-C-C-N, guess (same as GAFF X -X -ca-ha)
   492      494      493      564         4       180.000       4.60240    2     ; C-C-C-H, prebuilt X-X-ca-ha
   489      493      494      565         4       180.000       4.60240    2     ; C-C-C-H, prebuilt X-X-ca-ha
   492      496      495      566         4       180.000       4.60240    2     ; C-C-N-H, prebuilt X-X-n-hn
   495      497      496      498         4       180.000      43.93200    2     ; N-O-C-C, prebuilt X-X-c-o
   496      499      498      503         4       180.000       4.60240    2     ; C-C-C-C, guess (same as GAFF X -X -ca-ha)
   498      500      499      567         4       180.000       4.60240    2     ; C-C-C-H, prebuilt X-X-ca-ha
   499      501      500      568         4       180.000       4.60240    2     ; C-C-C-H, prebuilt X-X-ca-ha
   500      502      501      558         4       180.000       4.60240    2     ; C-C-C-C, prebuilt ca-ca-ca-c3
   501      503      502      569         4       180.000       4.60240    2     ; C-C-C-H, prebuilt X-X-ca-ha
   498      502      503      504         4       180.000       4.60240    2     ; C-C-C-N, guess (same as GAFF X -X -ca-ha)
   503      505      504      509         4       180.000       4.60240    2     ; C-C-N-C, guess (same as GAFF X -X -ca-ha)
   504      506      505      507         4       180.000      43.93200    2     ; N-O-C-C, prebuilt X-X-c-o
   505      508      507      514         4       180.000       4.60240    2     ; C-C-C-C, guess (same as GAFF X -X -ca-ha)
   507      509      508      511         4       180.000       4.60240    2     ; C-C-C-C, guess (same as GAFF X -X -ca-ha)
   504      508      509      510         4       180.000      43.93200    2     ; N-C-C-O, prebuilt X-X-c-o
   508      512      511      570         4       180.000       4.60240    2     ; C-C-C-H, prebuilt X-X-ca-ha
   511      513      512      515         4       180.000       4.60240    2     ; C-C-C-C, guess (same as GAFF X -X -ca-ha)
   512      514      513      571         4       180.000       4.60240    2     ; C-C-C-H, prebuilt X-X-ca-ha
   507      513      514      572         4       180.000       4.60240    2     ; C-C-C-H, prebuilt X-X-ca-ha
   512      516      515      517         4       180.000      43.93200    2     ; C-O-C-N, prebuilt X-X-c-o
   515      518      517      573         4       180.000       4.60240    2     ; C-C-N-H, prebuilt X-X-n-hn
   517      519      518      523         4       180.000       4.60240    2     ; N-C-C-C, guess (same as GAFF X -X -ca-ha)
   518      520      519      574         4       180.000       4.60240    2     ; C-C-C-H, prebuilt X-X-ca-ha
   519      521      520      575         4       180.000       4.60240    2     ; C-C-C-H, prebuilt X-X-ca-ha
   520      522      521      524         4       180.000       4.60240    2     ; C-C-C-O, guess (same as GAFF X -X -ca-ha)
   521      523      522      576         4       180.000       4.60240    2     ; C-C-C-H, prebuilt X-X-ca-ha
   518      522      523      577         4       180.000       4.60240    2     ; C-C-C-H, prebuilt X-X-ca-ha
   524      526      525      530         4       180.000       4.60240    2     ; O-C-C-C, guess (same as GAFF X -X -ca-ha)
   525      527      526      578         4       180.000       4.60240    2     ; C-C-C-H, prebuilt X-X-ca-ha
   526      528      527      579         4       180.000       4.60240    2     ; C-C-C-H, prebuilt X-X-ca-ha
   527      529      528      580         4       180.000       4.60240    2     ; C-C-C-H, prebuilt X-X-ca-ha
   528      530      529      581         4       180.000       4.60240    2     ; C-C-C-H, prebuilt X-X-ca-ha
   525      529      530      531         4       180.000       4.60240    2     ; C-C-C-O, guess (same as GAFF X -X -ca-ha)
   531      533      532      537         4       180.000       4.60240    2     ; O-C-C-C, guess (same as GAFF X -X -ca-ha)
   532      534      533      582         4       180.000       4.60240    2     ; C-C-C-H, prebuilt X-X-ca-ha
   533      535      534      583         4       180.000       4.60240    2     ; C-C-C-H, prebuilt X-X-ca-ha
   534      536      535      538         4       180.000       4.60240    2     ; C-C-C-N, guess (same as GAFF X -X -ca-ha)
   535      537      536      584         4       180.000       4.60240    2     ; C-C-C-H, prebuilt X-X-ca-ha
   532      536      537      585         4       180.000       4.60240    2     ; C-C-C-H, prebuilt X-X-ca-ha
   535      539      538      586         4       180.000       4.60240    2     ; C-C-N-H, prebuilt X-X-n-hn
   538      540      539      541         4       180.000      43.93200    2     ; N-O-C-C, prebuilt X-X-c-o
   539      542      541      546         4       180.000       4.60240    2     ; C-C-C-C, guess (same as GAFF X -X -ca-ha)
   541      543      542      587         4       180.000       4.60240    2     ; C-C-C-H, prebuilt X-X-ca-ha
   542      544      543      588         4       180.000       4.60240    2     ; C-C-C-H, prebuilt X-X-ca-ha
   543      545      544      547         4       180.000       4.60240    2     ; C-C-C-N, guess (same as GAFF X -X -ca-ha)
   544      546      545      589         4       180.000       4.60240    2     ; C-C-C-H, prebuilt X-X-ca-ha
   541      545      546      590         4       180.000       4.60240    2     ; C-C-C-H, prebuilt X-X-ca-ha
   544      548      547      552         4       180.000       4.60240    2     ; C-C-N-C, guess (same as GAFF X -X -ca-ha)
   547      549      548      550         4       180.000      43.93200    2     ; N-O-C-C, prebuilt X-X-c-o
   548      551      550      557         4       180.000       4.60240    2     ; C-C-C-C, guess (same as GAFF X -X -ca-ha)
   550      552      551      554         4       180.000       4.60240    2     ; C-C-C-C, guess (same as GAFF X -X -ca-ha)
   547      551      552      553         4       180.000      43.93200    2     ; N-C-C-O, prebuilt X-X-c-o
   551      555      554      591         4       180.000       4.60240    2     ; C-C-C-H, prebuilt X-X-ca-ha
   555      557      556      592         4       180.000       4.60240    2     ; C-C-C-H, prebuilt X-X-ca-ha
   550      556      557      593         4       180.000       4.60240    2     ; C-C-C-H, prebuilt X-X-ca-ha
   597      599      598      678         4       180.000       4.60240    2     ; C-C-C-H, prebuilt X-X-ca-ha
   598      600      599      679         4       180.000       4.60240    2     ; C-C-C-H, prebuilt X-X-ca-ha
   599      601      600      606         4       180.000       4.60240    2     ; C-C-C-C, guess (same as GAFF X -X -ca-ha)
   600      602      601      603         4       180.000       4.60240    2     ; C-C-C-C, guess (same as GAFF X -X -ca-ha)
   597      601      602      680         4       180.000       4.60240    2     ; C-C-C-H, prebuilt X-X-ca-ha
   601      604      603      605         4       180.000      43.93200    2     ; C-O-C-N, prebuilt X-X-c-o
   603      606      605      608         4       180.000       4.60240    2     ; C-C-N-C, guess (same as GAFF X -X -ca-ha)
   600      605      606      607         4       180.000      43.93200    2     ; C-N-C-O, prebuilt X-X-c-o
   605      609      608      613         4       180.000       4.60240    2     ; N-C-C-C, guess (same as GAFF X -X -ca-ha)
   608      610      609      681         4       180.000       4.60240    2     ; C-C-C-H, prebuilt X-X-ca-ha
   609      611      610      682         4       180.000       4.60240    2     ; C-C-C-H, prebuilt X-X-ca-ha
   610      612      611      614         4       180.000       4.60240    2     ; C-C-C-N, guess (same as GAFF X -X -ca-ha)
   611      613      612      683         4       180.000       4.60240    2     ; C-C-C-H, prebuilt X-X-ca-ha
   608      612      613      684         4       180.000       4.60240    2     ; C-C-C-H, prebuilt X-X-ca-ha
   611      615      614      685         4       180.000       4.60240    2     ; C-C-N-H, prebuilt X-X-n-hn
   614      616      615      617         4       180.000      43.93200    2     ; N-O-C-C, prebuilt X-X-c-o
   615      618      617      622         4       180.000       4.60240    2     ; C-C-C-C, guess (same as GAFF X -X -ca-ha)
   617      619      618      686         4       180.000       4.60240    2     ; C-C-C-H, prebuilt X-X-ca-ha
   618      620      619      687         4       180.000       4.60240    2     ; C-C-C-H, prebuilt X-X-ca-ha
   619      621      620      677         4       180.000       4.60240    2     ; C-C-C-C, prebuilt ca-ca-ca-c3
   620      622      621      688         4       180.000       4.60240    2     ; C-C-C-H, prebuilt X-X-ca-ha
   617      621      622      623         4       180.000       4.60240    2     ; C-C-C-N, guess (same as GAFF X -X -ca-ha)
   622      624      623      628         4       180.000       4.60240    2     ; C-C-N-C, guess (same as GAFF X -X -ca-ha)
   623      625      624      626         4       180.000      43.93200    2     ; N-O-C-C, prebuilt X-X-c-o
   624      627      626      633         4       180.000       4.60240    2     ; C-C-C-C, guess (same as GAFF X -X -ca-ha)
   626      628      627      630         4       180.000       4.60240    2     ; C-C-C-C, guess (same as GAFF X -X -ca-ha)
   623      627      628      629         4       180.000      43.93200    2     ; N-C-C-O, prebuilt X-X-c-o
   627      631      630      689         4       180.000       4.60240    2     ; C-C-C-H, prebuilt X-X-ca-ha
   630      632      631      634         4       180.000       4.60240    2     ; C-C-C-C, guess (same as GAFF X -X -ca-ha)
   631      633      632      690         4       180.000       4.60240    2     ; C-C-C-H, prebuilt X-X-ca-ha
   626      632      633      691         4       180.000       4.60240    2     ; C-C-C-H, prebuilt X-X-ca-ha
   631      635      634      636         4       180.000      43.93200    2     ; C-O-C-N, prebuilt X-X-c-o
   634      637      636      692         4       180.000       4.60240    2     ; C-C-N-H, prebuilt X-X-n-hn
   636      638      637      642         4       180.000       4.60240    2     ; N-C-C-C, guess (same as GAFF X -X -ca-ha)
   637      639      638      693         4       180.000       4.60240    2     ; C-C-C-H, prebuilt X-X-ca-ha
   638      640      639      694         4       180.000       4.60240    2     ; C-C-C-H, prebuilt X-X-ca-ha
   639      641      640      643         4       180.000       4.60240    2     ; C-C-C-O, guess (same as GAFF X -X -ca-ha)
   640      642      641      695         4       180.000       4.60240    2     ; C-C-C-H, prebuilt X-X-ca-ha
   637      641      642      696         4       180.000       4.60240    2     ; C-C-C-H, prebuilt X-X-ca-ha
   643      645      644      649         4       180.000       4.60240    2     ; O-C-C-C, guess (same as GAFF X -X -ca-ha)
   644      646      645      697         4       180.000       4.60240    2     ; C-C-C-H, prebuilt X-X-ca-ha
   645      647      646      698         4       180.000       4.60240    2     ; C-C-C-H, prebuilt X-X-ca-ha
   646      648      647      699         4       180.000       4.60240    2     ; C-C-C-H, prebuilt X-X-ca-ha
   647      649      648      700         4       180.000       4.60240    2     ; C-C-C-H, prebuilt X-X-ca-ha
   644      648      649      650         4       180.000       4.60240    2     ; C-C-C-O, guess (same as GAFF X -X -ca-ha)
   650      652      651      656         4       180.000       4.60240    2     ; O-C-C-C, guess (same as GAFF X -X -ca-ha)
   651      653      652      701         4       180.000       4.60240    2     ; C-C-C-H, prebuilt X-X-ca-ha
   652      654      653      702         4       180.000       4.60240    2     ; C-C-C-H, prebuilt X-X-ca-ha
   653      655      654      657         4       180.000       4.60240    2     ; C-C-C-N, guess (same as GAFF X -X -ca-ha)
   654      656      655      703         4       180.000       4.60240    2     ; C-C-C-H, prebuilt X-X-ca-ha
   651      655      656      704         4       180.000       4.60240    2     ; C-C-C-H, prebuilt X-X-ca-ha
   654      658      657      705         4       180.000       4.60240    2     ; C-C-N-H, prebuilt X-X-n-hn
   657      659      658      660         4       180.000      43.93200    2     ; N-O-C-C, prebuilt X-X-c-o
   658      661      660      665         4       180.000       4.60240    2     ; C-C-C-C, guess (same as GAFF X -X -ca-ha)
   660      662      661      706         4       180.000       4.60240    2     ; C-C-C-H, prebuilt X-X-ca-ha
   661      663      662      707         4       180.000       4.60240    2     ; C-C-C-H, prebuilt X-X-ca-ha
   662      664      663      666         4       180.000       4.60240    2     ; C-C-C-N, guess (same as GAFF X -X -ca-ha)
   663      665      664      708         4       180.000       4.60240    2     ; C-C-C-H, prebuilt X-X-ca-ha
   660      664      665      709         4       180.000       4.60240    2     ; C-C-C-H, prebuilt X-X-ca-ha
   663      667      666      671         4       180.000       4.60240    2     ; C-C-N-C, guess (same as GAFF X -X -ca-ha)
   666      668      667      669         4       180.000      43.93200    2     ; N-O-C-C, prebuilt X-X-c-o
   667      670      669      676         4       180.000       4.60240    2     ; C-C-C-C, guess (same as GAFF X -X -ca-ha)
   669      671      670      673         4       180.000       4.60240    2     ; C-C-C-C, guess (same as GAFF X -X -ca-ha)
   666      670      671      672         4       180.000      43.93200    2     ; N-C-C-O, prebuilt X-X-c-o
   670      674      673      710         4       180.000       4.60240    2     ; C-C-C-H, prebuilt X-X-ca-ha
   674      676      675      711         4       180.000       4.60240    2     ; C-C-C-H, prebuilt X-X-ca-ha
   669      675      676      712         4       180.000       4.60240    2     ; C-C-C-H, prebuilt X-X-ca-ha
   716      718      717      797         4       180.000       4.60240    2     ; C-C-C-H, prebuilt X-X-ca-ha
   717      719      718      798         4       180.000       4.60240    2     ; C-C-C-H, prebuilt X-X-ca-ha
   718      720      719      725         4       180.000       4.60240    2     ; C-C-C-C, guess (same as GAFF X -X -ca-ha)
   719      721      720      722         4       180.000       4.60240    2     ; C-C-C-C, guess (same as GAFF X -X -ca-ha)
   716      720      721      799         4       180.000       4.60240    2     ; C-C-C-H, prebuilt X-X-ca-ha
   720      723      722      724         4       180.000      43.93200    2     ; C-O-C-N, prebuilt X-X-c-o
   722      725      724      727         4       180.000       4.60240    2     ; C-C-N-C, guess (same as GAFF X -X -ca-ha)
   719      724      725      726         4       180.000      43.93200    2     ; C-N-C-O, prebuilt X-X-c-o
   724      728      727      732         4       180.000       4.60240    2     ; N-C-C-C, guess (same as GAFF X -X -ca-ha)
   727      729      728      800         4       180.000       4.60240    2     ; C-C-C-H, prebuilt X-X-ca-ha
   728      730      729      801         4       180.000       4.60240    2     ; C-C-C-H, prebuilt X-X-ca-ha
   729      731      730      733         4       180.000       4.60240    2     ; C-C-C-N, guess (same as GAFF X -X -ca-ha)
   730      732      731      802         4       180.000       4.60240    2     ; C-C-C-H, prebuilt X-X-ca-ha
   727      731      732      803         4       180.000       4.60240    2     ; C-C-C-H, prebuilt X-X-ca-ha
   730      734      733      804         4       180.000       4.60240    2     ; C-C-N-H, prebuilt X-X-n-hn
   733      735      734      736         4       180.000      43.93200    2     ; N-O-C-C, prebuilt X-X-c-o
   734      737      736      741         4       180.000       4.60240    2     ; C-C-C-C, guess (same as GAFF X -X -ca-ha)
   736      738      737      805         4       180.000       4.60240    2     ; C-C-C-H, prebuilt X-X-ca-ha
   737      739      738      806         4       180.000       4.60240    2     ; C-C-C-H, prebuilt X-X-ca-ha
   738      740      739      796         4       180.000       4.60240    2     ; C-C-C-C, prebuilt ca-ca-ca-c3
   739      741      740      807         4       180.000       4.60240    2     ; C-C-C-H, prebuilt X-X-ca-ha
   736      740      741      742         4       180.000       4.60240    2     ; C-C-C-N, guess (same as GAFF X -X -ca-ha)
   741      743      742      747         4       180.000       4.60240    2     ; C-C-N-C, guess (same as GAFF X -X -ca-ha)
   742      744      743      745         4       180.000      43.93200    2     ; N-O-C-C, prebuilt X-X-c-o
   743      746      745      752         4       180.000       4.60240    2     ; C-C-C-C, guess (same as GAFF X -X -ca-ha)
   745      747      746      749         4       180.000       4.60240    2     ; C-C-C-C, guess (same as GAFF X -X -ca-ha)
   742      746      747      748         4       180.000      43.93200    2     ; N-C-C-O, prebuilt X-X-c-o
   746      750      749      808         4       180.000       4.60240    2     ; C-C-C-H, prebuilt X-X-ca-ha
   749      751      750      753         4       180.000       4.60240    2     ; C-C-C-C, guess (same as GAFF X -X -ca-ha)
   750      752      751      809         4       180.000       4.60240    2     ; C-C-C-H, prebuilt X-X-ca-ha
   745      751      752      810         4       180.000       4.60240    2     ; C-C-C-H, prebuilt X-X-ca-ha
   750      754      753      755         4       180.000      43.93200    2     ; C-O-C-N, prebuilt X-X-c-o
   753      756      755      811         4       180.000       4.60240    2     ; C-C-N-H, prebuilt X-X-n-hn
   755      757      756      761         4       180.000       4.60240    2     ; N-C-C-C, guess (same as GAFF X -X -ca-ha)
   756      758      757      812         4       180.000       4.60240    2     ; C-C-C-H, prebuilt X-X-ca-ha
   757      759      758      813         4       180.000       4.60240    2     ; C-C-C-H, prebuilt X-X-ca-ha
   758      760      759      762         4       180.000       4.60240    2     ; C-C-C-O, guess (same as GAFF X -X -ca-ha)
   759      761      760      814         4       180.000       4.60240    2     ; C-C-C-H, prebuilt X-X-ca-ha
   756      760      761      815         4       180.000       4.60240    2     ; C-C-C-H, prebuilt X-X-ca-ha
   762      764      763      768         4       180.000       4.60240    2     ; O-C-C-C, guess (same as GAFF X -X -ca-ha)
   763      765      764      816         4       180.000       4.60240    2     ; C-C-C-H, prebuilt X-X-ca-ha
   764      766      765      817         4       180.000       4.60240    2     ; C-C-C-H, prebuilt X-X-ca-ha
   765      767      766      818         4       180.000       4.60240    2     ; C-C-C-H, prebuilt X-X-ca-ha
   766      768      767      819         4       180.000       4.60240    2     ; C-C-C-H, prebuilt X-X-ca-ha
   763      767      768      769         4       180.000       4.60240    2     ; C-C-C-O, guess (same as GAFF X -X -ca-ha)
   769      771      770      775         4       180.000       4.60240    2     ; O-C-C-C, guess (same as GAFF X -X -ca-ha)
   770      772      771      820         4       180.000       4.60240    2     ; C-C-C-H, prebuilt X-X-ca-ha
   771      773      772      821         4       180.000       4.60240    2     ; C-C-C-H, prebuilt X-X-ca-ha
   772      774      773      776         4       180.000       4.60240    2     ; C-C-C-N, guess (same as GAFF X -X -ca-ha)
   773      775      774      822         4       180.000       4.60240    2     ; C-C-C-H, prebuilt X-X-ca-ha
   770      774      775      823         4       180.000       4.60240    2     ; C-C-C-H, prebuilt X-X-ca-ha
   773      777      776      824         4       180.000       4.60240    2     ; C-C-N-H, prebuilt X-X-n-hn
   776      778      777      779         4       180.000      43.93200    2     ; N-O-C-C, prebuilt X-X-c-o
   777      780      779      784         4       180.000       4.60240    2     ; C-C-C-C, guess (same as GAFF X -X -ca-ha)
   779      781      780      825         4       180.000       4.60240    2     ; C-C-C-H, prebuilt X-X-ca-ha
   780      782      781      826         4       180.000       4.60240    2     ; C-C-C-H, prebuilt X-X-ca-ha
   781      783      782      785         4       180.000       4.60240    2     ; C-C-C-N, guess (same as GAFF X -X -ca-ha)
   782      784      783      827         4       180.000       4.60240    2     ; C-C-C-H, prebuilt X-X-ca-ha
   779      783      784      828         4       180.000       4.60240    2     ; C-C-C-H, prebuilt X-X-ca-ha
   782      786      785      790         4       180.000       4.60240    2     ; C-C-N-C, guess (same as GAFF X -X -ca-ha)
   785      787      786      788         4       180.000      43.93200    2     ; N-O-C-C, prebuilt X-X-c-o
   786      789      788      795         4       180.000       4.60240    2     ; C-C-C-C, guess (same as GAFF X -X -ca-ha)
   788      790      789      792         4       180.000       4.60240    2     ; C-C-C-C, guess (same as GAFF X -X -ca-ha)
   785      789      790      791         4       180.000      43.93200    2     ; N-C-C-O, prebuilt X-X-c-o
   789      793      792      829         4       180.000       4.60240    2     ; C-C-C-H, prebuilt X-X-ca-ha
   793      795      794      830         4       180.000       4.60240    2     ; C-C-C-H, prebuilt X-X-ca-ha
   788      794      795      831         4       180.000       4.60240    2     ; C-C-C-H, prebuilt X-X-ca-ha
   835      837      836      916         4       180.000       4.60240    2     ; C-C-C-H, prebuilt X-X-ca-ha
   836      838      837      917         4       180.000       4.60240    2     ; C-C-C-H, prebuilt X-X-ca-ha
   837      839      838      844         4       180.000       4.60240    2     ; C-C-C-C, guess (same as GAFF X -X -ca-ha)
   838      840      839      841         4       180.000       4.60240    2     ; C-C-C-C, guess (same as GAFF X -X -ca-ha)
   835      839      840      918         4       180.000       4.60240    2     ; C-C-C-H, prebuilt X-X-ca-ha
   839      842      841      843         4       180.000      43.93200    2     ; C-O-C-N, prebuilt X-X-c-o
   841      844      843      846         4       180.000       4.60240    2     ; C-C-N-C, guess (same as GAFF X -X -ca-ha)
   838      843      844      845         4       180.000      43.93200    2     ; C-N-C-O, prebuilt X-X-c-o
   843      847      846      851         4       180.000       4.60240    2     ; N-C-C-C, guess (same as GAFF X -X -ca-ha)
   846      848      847      919         4       180.000       4.60240    2     ; C-C-C-H, prebuilt X-X-ca-ha
   847      849      848      920         4       180.000       4.60240    2     ; C-C-C-H, prebuilt X-X-ca-ha
   848      850      849      852         4       180.000       4.60240    2     ; C-C-C-N, guess (same as GAFF X -X -ca-ha)
   849      851      850      921         4       180.000       4.60240    2     ; C-C-C-H, prebuilt X-X-ca-ha
   846      850      851      922         4       180.000       4.60240    2     ; C-C-C-H, prebuilt X-X-ca-ha
   849      853      852      923         4       180.000       4.60240    2     ; C-C-N-H, prebuilt X-X-n-hn
   852      854      853      855         4       180.000      43.93200    2     ; N-O-C-C, prebuilt X-X-c-o
   853      856      855      860         4       180.000       4.60240    2     ; C-C-C-C, guess (same as GAFF X -X -ca-ha)
   855      857      856      924         4       180.000       4.60240    2     ; C-C-C-H, prebuilt X-X-ca-ha
   856      858      857      925         4       180.000       4.60240    2     ; C-C-C-H, prebuilt X-X-ca-ha
   857      859      858      915         4       180.000       4.60240    2     ; C-C-C-C, prebuilt ca-ca-ca-c3
   858      860      859      926         4       180.000       4.60240    2     ; C-C-C-H, prebuilt X-X-ca-ha
   855      859      860      861         4       180.000       4.60240    2     ; C-C-C-N, guess (same as GAFF X -X -ca-ha)
   860      862      861      866         4       180.000       4.60240    2     ; C-C-N-C, guess (same as GAFF X -X -ca-ha)
   861      863      862      864         4       180.000      43.93200    2     ; N-O-C-C, prebuilt X-X-c-o
   862      865      864      871         4       180.000       4.60240    2     ; C-C-C-C, guess (same as GAFF X -X -ca-ha)
   864      866      865      868         4       180.000       4.60240    2     ; C-C-C-C, guess (same as GAFF X -X -ca-ha)
   861      865      866      867         4       180.000      43.93200    2     ; N-C-C-O, prebuilt X-X-c-o
   865      869      868      927         4       180.000       4.60240    2     ; C-C-C-H, prebuilt X-X-ca-ha
   868      870      869      872         4       180.000       4.60240    2     ; C-C-C-C, guess (same as GAFF X -X -ca-ha)
   869      871      870      928         4       180.000       4.60240    2     ; C-C-C-H, prebuilt X-X-ca-ha
   864      870      871      929         4       180.000       4.60240    2     ; C-C-C-H, prebuilt X-X-ca-ha
   869      873      872      874         4       180.000      43.93200    2     ; C-O-C-N, prebuilt X-X-c-o
   872      875      874      930         4       180.000       4.60240    2     ; C-C-N-H, prebuilt X-X-n-hn
   874      876      875      880         4       180.000       4.60240    2     ; N-C-C-C, guess (same as GAFF X -X -ca-ha)
   875      877      876      931         4       180.000       4.60240    2     ; C-C-C-H, prebuilt X-X-ca-ha
   876      878      877      932         4       180.000       4.60240    2     ; C-C-C-H, prebuilt X-X-ca-ha
   877      879      878      881         4       180.000       4.60240    2     ; C-C-C-O, guess (same as GAFF X -X -ca-ha)
   878      880      879      933         4       180.000       4.60240    2     ; C-C-C-H, prebuilt X-X-ca-ha
   875      879      880      934         4       180.000       4.60240    2     ; C-C-C-H, prebuilt X-X-ca-ha
   881      883      882      887         4       180.000       4.60240    2     ; O-C-C-C, guess (same as GAFF X -X -ca-ha)
   882      884      883      935         4       180.000       4.60240    2     ; C-C-C-H, prebuilt X-X-ca-ha
   883      885      884      936         4       180.000       4.60240    2     ; C-C-C-H, prebuilt X-X-ca-ha
   884      886      885      937         4       180.000       4.60240    2     ; C-C-C-H, prebuilt X-X-ca-ha
   885      887      886      938         4       180.000       4.60240    2     ; C-C-C-H, prebuilt X-X-ca-ha
   882      886      887      888         4       180.000       4.60240    2     ; C-C-C-O, guess (same as GAFF X -X -ca-ha)
   888      890      889      894         4       180.000       4.60240    2     ; O-C-C-C, guess (same as GAFF X -X -ca-ha)
   889      891      890      939         4       180.000       4.60240    2     ; C-C-C-H, prebuilt X-X-ca-ha
   890      892      891      940         4       180.000       4.60240    2     ; C-C-C-H, prebuilt X-X-ca-ha
   891      893      892      895         4       180.000       4.60240    2     ; C-C-C-N, guess (same as GAFF X -X -ca-ha)
   892      894      893      941         4       180.000       4.60240    2     ; C-C-C-H, prebuilt X-X-ca-ha
   889      893      894      942         4       180.000       4.60240    2     ; C-C-C-H, prebuilt X-X-ca-ha
   892      896      895      943         4       180.000       4.60240    2     ; C-C-N-H, prebuilt X-X-n-hn
   895      897      896      898         4       180.000      43.93200    2     ; N-O-C-C, prebuilt X-X-c-o
   896      899      898      903         4       180.000       4.60240    2     ; C-C-C-C, guess (same as GAFF X -X -ca-ha)
   898      900      899      944         4       180.000       4.60240    2     ; C-C-C-H, prebuilt X-X-ca-ha
   899      901      900      945         4       180.000       4.60240    2     ; C-C-C-H, prebuilt X-X-ca-ha
   900      902      901      904         4       180.000       4.60240    2     ; C-C-C-N, guess (same as GAFF X -X -ca-ha)
   901      903      902      946         4       180.000       4.60240    2     ; C-C-C-H, prebuilt X-X-ca-ha
   898      902      903      947         4       180.000       4.60240    2     ; C-C-C-H, prebuilt X-X-ca-ha
   901      905      904      909         4       180.000       4.60240    2     ; C-C-N-C, guess (same as GAFF X -X -ca-ha)
   904      906      905      907         4       180.000      43.93200    2     ; N-O-C-C, prebuilt X-X-c-o
   905      908      907      914         4       180.000       4.60240    2     ; C-C-C-C, guess (same as GAFF X -X -ca-ha)
   907      909      908      911         4       180.000       4.60240    2     ; C-C-C-C, guess (same as GAFF X -X -ca-ha)
   904      908      909      910         4       180.000      43.93200    2     ; N-C-C-O, prebuilt X-X-c-o
   908      912      911      948         4       180.000       4.60240    2     ; C-C-C-H, prebuilt X-X-ca-ha
   912      914      913      949         4       180.000       4.60240    2     ; C-C-C-H, prebuilt X-X-ca-ha
   907      913      914      950         4       180.000       4.60240    2     ; C-C-C-H, prebuilt X-X-ca-ha
   954      956      955     1035         4       180.000       4.60240    2     ; C-C-C-H, prebuilt X-X-ca-ha
   955      957      956     1036         4       180.000       4.60240    2     ; C-C-C-H, prebuilt X-X-ca-ha
   956      958      957      963         4       180.000       4.60240    2     ; C-C-C-C, guess (same as GAFF X -X -ca-ha)
   957      959      958      960         4       180.000       4.60240    2     ; C-C-C-C, guess (same as GAFF X -X -ca-ha)
   954      958      959     1037         4       180.000       4.60240    2     ; C-C-C-H, prebuilt X-X-ca-ha
   958      961      960      962         4       180.000      43.93200    2     ; C-O-C-N, prebuilt X-X-c-o
   960      963      962      965         4       180.000       4.60240    2     ; C-C-N-C, guess (same as GAFF X -X -ca-ha)
   957      962      963      964         4       180.000      43.93200    2     ; C-N-C-O, prebuilt X-X-c-o
   962      966      965      970         4       180.000       4.60240    2     ; N-C-C-C, guess (same as GAFF X -X -ca-ha)
   965      967      966     1038         4       180.000       4.60240    2     ; C-C-C-H, prebuilt X-X-ca-ha
   966      968      967     1039         4       180.000       4.60240    2     ; C-C-C-H, prebuilt X-X-ca-ha
   967      969      968      971         4       180.000       4.60240    2     ; C-C-C-N, guess (same as GAFF X -X -ca-ha)
   968      970      969     1040         4       180.000       4.60240    2     ; C-C-C-H, prebuilt X-X-ca-ha
   965      969      970     1041         4       180.000       4.60240    2     ; C-C-C-H, prebuilt X-X-ca-ha
   968      972      971     1042         4       180.000       4.60240    2     ; C-C-N-H, prebuilt X-X-n-hn
   971      973      972      974         4       180.000      43.93200    2     ; N-O-C-C, prebuilt X-X-c-o
   972      975      974      979         4       180.000       4.60240    2     ; C-C-C-C, guess (same as GAFF X -X -ca-ha)
   974      976      975     1043         4       180.000       4.60240    2     ; C-C-C-H, prebuilt X-X-ca-ha
   975      977      976     1044         4       180.000       4.60240    2     ; C-C-C-H, prebuilt X-X-ca-ha
   976      978      977     1034         4       180.000       4.60240    2     ; C-C-C-C, prebuilt ca-ca-ca-c3
   977      979      978     1045         4       180.000       4.60240    2     ; C-C-C-H, prebuilt X-X-ca-ha
   974      978      979      980         4       180.000       4.60240    2     ; C-C-C-N, guess (same as GAFF X -X -ca-ha)
   979      981      980      985         4       180.000       4.60240    2     ; C-C-N-C, guess (same as GAFF X -X -ca-ha)
   980      982      981      983         4       180.000      43.93200    2     ; N-O-C-C, prebuilt X-X-c-o
   981      984      983      990         4       180.000       4.60240    2     ; C-C-C-C, guess (same as GAFF X -X -ca-ha)
   983      985      984      987         4       180.000       4.60240    2     ; C-C-C-C, guess (same as GAFF X -X -ca-ha)
   980      984      985      986         4       180.000      43.93200    2     ; N-C-C-O, prebuilt X-X-c-o
   984      988      987     1046         4       180.000       4.60240    2     ; C-C-C-H, prebuilt X-X-ca-ha
   987      989      988      991         4       180.000       4.60240    2     ; C-C-C-C, guess (same as GAFF X -X -ca-ha)
   988      990      989     1047         4       180.000       4.60240    2     ; C-C-C-H, prebuilt X-X-ca-ha
   983      989      990     1048         4       180.000       4.60240    2     ; C-C-C-H, prebuilt X-X-ca-ha
   988      992      991      993         4       180.000      43.93200    2     ; C-O-C-N, prebuilt X-X-c-o
   991      994      993     1049         4       180.000       4.60240    2     ; C-C-N-H, prebuilt X-X-n-hn
   993      995      994      999         4       180.000       4.60240    2     ; N-C-C-C, guess (same as GAFF X -X -ca-ha)
   994      996      995     1050         4       180.000       4.60240    2     ; C-C-C-H, prebuilt X-X-ca-ha
   995      997      996     1051         4       180.000       4.60240    2     ; C-C-C-H, prebuilt X-X-ca-ha
   996      998      997     1000         4       180.000       4.60240    2     ; C-C-C-O, guess (same as GAFF X -X -ca-ha)
   997      999      998     1052         4       180.000       4.60240    2     ; C-C-C-H, prebuilt X-X-ca-ha
   994      998      999     1053         4       180.000       4.60240    2     ; C-C-C-H, prebuilt X-X-ca-ha
  1000     1002     1001     1006         4       180.000       4.60240    2     ; O-C-C-C, guess (same as GAFF X -X -ca-ha)
  1001     1003     1002     1054         4       180.000       4.60240    2     ; C-C-C-H, prebuilt X-X-ca-ha
  1002     1004     1003     1055         4       180.000       4.60240    2     ; C-C-C-H, prebuilt X-X-ca-ha
  1003     1005     1004     1056         4       180.000       4.60240    2     ; C-C-C-H, prebuilt X-X-ca-ha
  1004     1006     1005     1057         4       180.000       4.60240    2     ; C-C-C-H, prebuilt X-X-ca-ha
  1001     1005     1006     1007         4       180.000       4.60240    2     ; C-C-C-O, guess (same as GAFF X -X -ca-ha)
  1007     1009     1008     1013         4       180.000       4.60240    2     ; O-C-C-C, guess (same as GAFF X -X -ca-ha)
  1008     1010     1009     1058         4       180.000       4.60240    2     ; C-C-C-H, prebuilt X-X-ca-ha
  1009     1011     1010     1059         4       180.000       4.60240    2     ; C-C-C-H, prebuilt X-X-ca-ha
  1010     1012     1011     1014         4       180.000       4.60240    2     ; C-C-C-N, guess (same as GAFF X -X -ca-ha)
  1011     1013     1012     1060         4       180.000       4.60240    2     ; C-C-C-H, prebuilt X-X-ca-ha
  1008     1012     1013     1061         4       180.000       4.60240    2     ; C-C-C-H, prebuilt X-X-ca-ha
  1011     1015     1014     1062         4       180.000       4.60240    2     ; C-C-N-H, prebuilt X-X-n-hn
  1014     1016     1015     1017         4       180.000      43.93200    2     ; N-O-C-C, prebuilt X-X-c-o
  1015     1018     1017     1022         4       180.000       4.60240    2     ; C-C-C-C, guess (same as GAFF X -X -ca-ha)
  1017     1019     1018     1063         4       180.000       4.60240    2     ; C-C-C-H, prebuilt X-X-ca-ha
  1018     1020     1019     1064         4       180.000       4.60240    2     ; C-C-C-H, prebuilt X-X-ca-ha
  1019     1021     1020     1023         4       180.000       4.60240    2     ; C-C-C-N, guess (same as GAFF X -X -ca-ha)
  1020     1022     1021     1065         4       180.000       4.60240    2     ; C-C-C-H, prebuilt X-X-ca-ha
  1017     1021     1022     1066         4       180.000       4.60240    2     ; C-C-C-H, prebuilt X-X-ca-ha
  1020     1024     1023     1028         4       180.000       4.60240    2     ; C-C-N-C, guess (same as GAFF X -X -ca-ha)
  1023     1025     1024     1026         4       180.000      43.93200    2     ; N-O-C-C, prebuilt X-X-c-o
  1024     1027     1026     1033         4       180.000       4.60240    2     ; C-C-C-C, guess (same as GAFF X -X -ca-ha)
  1026     1028     1027     1030         4       180.000       4.60240    2     ; C-C-C-C, guess (same as GAFF X -X -ca-ha)
  1023     1027     1028     1029         4       180.000      43.93200    2     ; N-C-C-O, prebuilt X-X-c-o
  1027     1031     1030     1067         4       180.000       4.60240    2     ; C-C-C-H, prebuilt X-X-ca-ha
  1031     1033     1032     1068         4       180.000       4.60240    2     ; C-C-C-H, prebuilt X-X-ca-ha
  1026     1032     1033     1069         4       180.000       4.60240    2     ; C-C-C-H, prebuilt X-X-ca-ha
  1073     1075     1074     1154         4       180.000       4.60240    2     ; C-C-C-H, prebuilt X-X-ca-ha
  1074     1076     1075     1155         4       180.000       4.60240    2     ; C-C-C-H, prebuilt X-X-ca-ha
  1075     1077     1076     1082         4       180.000       4.60240    2     ; C-C-C-C, guess (same as GAFF X -X -ca-ha)
  1076     1078     1077     1079         4       180.000       4.60240    2     ; C-C-C-C, guess (same as GAFF X -X -ca-ha)
  1073     1077     1078     1156         4       180.000       4.60240    2     ; C-C-C-H, prebuilt X-X-ca-ha
  1077     1080     1079     1081         4       180.000      43.93200    2     ; C-O-C-N, prebuilt X-X-c-o
  1079     1082     1081     1084         4       180.000       4.60240    2     ; C-C-N-C, guess (same as GAFF X -X -ca-ha)
  1076     1081     1082     1083         4       180.000      43.93200    2     ; C-N-C-O, prebuilt X-X-c-o
  1081     1085     1084     1089         4       180.000       4.60240    2     ; N-C-C-C, guess (same as GAFF X -X -ca-ha)
  1084     1086     1085     1157         4       180.000       4.60240    2     ; C-C-C-H, prebuilt X-X-ca-ha
  1085     1087     1086     1158         4       180.000       4.60240    2     ; C-C-C-H, prebuilt X-X-ca-ha
  1086     1088     1087     1090         4       180.000       4.60240    2     ; C-C-C-N, guess (same as GAFF X -X -ca-ha)
  1087     1089     1088     1159         4       180.000       4.60240    2     ; C-C-C-H, prebuilt X-X-ca-ha
  1084     1088     1089     1160         4       180.000       4.60240    2     ; C-C-C-H, prebuilt X-X-ca-ha
  1087     1091     1090     1161         4       180.000       4.60240    2     ; C-C-N-H, prebuilt X-X-n-hn
  1090     1092     1091     1093         4       180.000      43.93200    2     ; N-O-C-C, prebuilt X-X-c-o
  1091     1094     1093     1098         4       180.000       4.60240    2     ; C-C-C-C, guess (same as GAFF X -X -ca-ha)
  1093     1095     1094     1162         4       180.000       4.60240    2     ; C-C-C-H, prebuilt X-X-ca-ha
  1094     1096     1095     1163         4       180.000       4.60240    2     ; C-C-C-H, prebuilt X-X-ca-ha
  1095     1097     1096     1153         4       180.000       4.60240    2     ; C-C-C-C, prebuilt ca-ca-ca-c3
  1096     1098     1097     1164         4       180.000       4.60240    2     ; C-C-C-H, prebuilt X-X-ca-ha
  1093     1097     1098     1099         4       180.000       4.60240    2     ; C-C-C-N, guess (same as GAFF X -X -ca-ha)
  1098     1100     1099     1104         4       180.000       4.60240    2     ; C-C-N-C, guess (same as GAFF X -X -ca-ha)
  1099     1101     1100     1102         4       180.000      43.93200    2     ; N-O-C-C, prebuilt X-X-c-o
  1100     1103     1102     1109         4       180.000       4.60240    2     ; C-C-C-C, guess (same as GAFF X -X -ca-ha)
  1102     1104     1103     1106         4       180.000       4.60240    2     ; C-C-C-C, guess (same as GAFF X -X -ca-ha)
  1099     1103     1104     1105         4       180.000      43.93200    2     ; N-C-C-O, prebuilt X-X-c-o
  1103     1107     1106     1165         4       180.000       4.60240    2     ; C-C-C-H, prebuilt X-X-ca-ha
  1106     1108     1107     1110         4       180.000       4.60240    2     ; C-C-C-C, guess (same as GAFF X -X -ca-ha)
  1107     1109     1108     1166         4       180.000       4.60240    2     ; C-C-C-H, prebuilt X-X-ca-ha
  1102     1108     1109     1167         4       180.000       4.60240    2     ; C-C-C-H, prebuilt X-X-ca-ha
  1107     1111     1110     1112         4       180.000      43.93200    2     ; C-O-C-N, prebuilt X-X-c-o
  1110     1113     1112     1168         4       180.000       4.60240    2     ; C-C-N-H, prebuilt X-X-n-hn
  1112     1114     1113     1118         4       180.000       4.60240    2     ; N-C-C-C, guess (same as GAFF X -X -ca-ha)
  1113     1115     1114     1169         4       180.000       4.60240    2     ; C-C-C-H, prebuilt X-X-ca-ha
  1114     1116     1115     1170         4       180.000       4.60240    2     ; C-C-C-H, prebuilt X-X-ca-ha
  1115     1117     1116     1119         4       180.000       4.60240    2     ; C-C-C-O, guess (same as GAFF X -X -ca-ha)
  1116     1118     1117     1171         4       180.000       4.60240    2     ; C-C-C-H, prebuilt X-X-ca-ha
  1113     1117     1118     1172         4       180.000       4.60240    2     ; C-C-C-H, prebuilt X-X-ca-ha
  1119     1121     1120     1125         4       180.000       4.60240    2     ; O-C-C-C, guess (same as GAFF X -X -ca-ha)
  1120     1122     1121     1173         4       180.000       4.60240    2     ; C-C-C-H, prebuilt X-X-ca-ha
  1121     1123     1122     1174         4       180.000       4.60240    2     ; C-C-C-H, prebuilt X-X-ca-ha
  1122     1124     1123     1175         4       180.000       4.60240    2     ; C-C-C-H, prebuilt X-X-ca-ha
  1123     1125     1124     1176         4       180.000       4.60240    2     ; C-C-C-H, prebuilt X-X-ca-ha
  1120     1124     1125     1126         4       180.000       4.60240    2     ; C-C-C-O, guess (same as GAFF X -X -ca-ha)
  1126     1128     1127     1132         4       180.000       4.60240    2     ; O-C-C-C, guess (same as GAFF X -X -ca-ha)
  1127     1129     1128     1177         4       180.000       4.60240    2     ; C-C-C-H, prebuilt X-X-ca-ha
  1128     1130     1129     1178         4       180.000       4.60240    2     ; C-C-C-H, prebuilt X-X-ca-ha
  1129     1131     1130     1133         4       180.000       4.60240    2     ; C-C-C-N, guess (same as GAFF X -X -ca-ha)
  1130     1132     1131     1179         4       180.000       4.60240    2     ; C-C-C-H, prebuilt X-X-ca-ha
  1127     1131     1132     1180         4       180.000       4.60240    2     ; C-C-C-H, prebuilt X-X-ca-ha
  1130     1134     1133     1181         4       180.000       4.60240    2     ; C-C-N-H, prebuilt X-X-n-hn
  1133     1135     1134     1136         4       180.000      43.93200    2     ; N-O-C-C, prebuilt X-X-c-o
  1134     1137     1136     1141         4       180.000       4.60240    2     ; C-C-C-C, guess (same as GAFF X -X -ca-ha)
  1136     1138     1137     1182         4       180.000       4.60240    2     ; C-C-C-H, prebuilt X-X-ca-ha
  1137     1139     1138     1183         4       180.000       4.60240    2     ; C-C-C-H, prebuilt X-X-ca-ha
  1138     1140     1139     1142         4       180.000       4.60240    2     ; C-C-C-N, guess (same as GAFF X -X -ca-ha)
  1139     1141     1140     1184         4       180.000       4.60240    2     ; C-C-C-H, prebuilt X-X-ca-ha
  1136     1140     1141     1185         4       180.000       4.60240    2     ; C-C-C-H, prebuilt X-X-ca-ha
  1139     1143     1142     1147         4       180.000       4.60240    2     ; C-C-N-C, guess (same as GAFF X -X -ca-ha)
  1142     1144     1143     1145         4       180.000      43.93200    2     ; N-O-C-C, prebuilt X-X-c-o
  1143     1146     1145     1152         4       180.000       4.60240    2     ; C-C-C-C, guess (same as GAFF X -X -ca-ha)
  1145     1147     1146     1149         4       180.000       4.60240    2     ; C-C-C-C, guess (same as GAFF X -X -ca-ha)
  1142     1146     1147     1148         4       180.000      43.93200    2     ; N-C-C-O, prebuilt X-X-c-o
  1146     1150     1149     1186         4       180.000       4.60240    2     ; C-C-C-H, prebuilt X-X-ca-ha
  1150     1152     1151     1187         4       180.000       4.60240    2     ; C-C-C-H, prebuilt X-X-ca-ha
  1145     1151     1152     1188         4       180.000       4.60240    2     ; C-C-C-H, prebuilt X-X-ca-ha
  1192     1194     1193     1273         4       180.000       4.60240    2     ; C-C-C-H, prebuilt X-X-ca-ha
  1193     1195     1194     1274         4       180.000       4.60240    2     ; C-C-C-H, prebuilt X-X-ca-ha
  1194     1196     1195     1201         4       180.000       4.60240    2     ; C-C-C-C, guess (same as GAFF X -X -ca-ha)
  1195     1197     1196     1198         4       180.000       4.60240    2     ; C-C-C-C, guess (same as GAFF X -X -ca-ha)
  1192     1196     1197     1275         4       180.000       4.60240    2     ; C-C-C-H, prebuilt X-X-ca-ha
  1196     1199     1198     1200         4       180.000      43.93200    2     ; C-O-C-N, prebuilt X-X-c-o
  1198     1201     1200     1203         4       180.000       4.60240    2     ; C-C-N-C, guess (same as GAFF X -X -ca-ha)
  1195     1200     1201     1202         4       180.000      43.93200    2     ; C-N-C-O, prebuilt X-X-c-o
  1200     1204     1203     1208         4       180.000       4.60240    2     ; N-C-C-C, guess (same as GAFF X -X -ca-ha)
  1203     1205     1204     1276         4       180.000       4.60240    2     ; C-C-C-H, prebuilt X-X-ca-ha
  1204     1206     1205     1277         4       180.000       4.60240    2     ; C-C-C-H, prebuilt X-X-ca-ha
  1205     1207     1206     1209         4       180.000       4.60240    2     ; C-C-C-N, guess (same as GAFF X -X -ca-ha)
  1206     1208     1207     1278         4       180.000       4.60240    2     ; C-C-C-H, prebuilt X-X-ca-ha
  1203     1207     1208     1279         4       180.000       4.60240    2     ; C-C-C-H, prebuilt X-X-ca-ha
  1206     1210     1209     1280         4       180.000       4.60240    2     ; C-C-N-H, prebuilt X-X-n-hn
  1209     1211     1210     1212         4       180.000      43.93200    2     ; N-O-C-C, prebuilt X-X-c-o
  1210     1213     1212     1217         4       180.000       4.60240    2     ; C-C-C-C, guess (same as GAFF X -X -ca-ha)
  1212     1214     1213     1281         4       180.000       4.60240    2     ; C-C-C-H, prebuilt X-X-ca-ha
  1213     1215     1214     1282         4       180.000       4.60240    2     ; C-C-C-H, prebuilt X-X-ca-ha
  1214     1216     1215     1272         4       180.000       4.60240    2     ; C-C-C-C, prebuilt ca-ca-ca-c3
  1215     1217     1216     1283         4       180.000       4.60240    2     ; C-C-C-H, prebuilt X-X-ca-ha
  1212     1216     1217     1218         4       180.000       4.60240    2     ; C-C-C-N, guess (same as GAFF X -X -ca-ha)
  1217     1219     1218     1223         4       180.000       4.60240    2     ; C-C-N-C, guess (same as GAFF X -X -ca-ha)
  1218     1220     1219     1221         4       180.000      43.93200    2     ; N-O-C-C, prebuilt X-X-c-o
  1219     1222     1221     1228         4       180.000       4.60240    2     ; C-C-C-C, guess (same as GAFF X -X -ca-ha)
  1221     1223     1222     1225         4       180.000       4.60240    2     ; C-C-C-C, guess (same as GAFF X -X -ca-ha)
  1218     1222     1223     1224         4       180.000      43.93200    2     ; N-C-C-O, prebuilt X-X-c-o
  1222     1226     1225     1284         4       180.000       4.60240    2     ; C-C-C-H, prebuilt X-X-ca-ha
  1225     1227     1226     1229         4       180.000       4.60240    2     ; C-C-C-C, guess (same as GAFF X -X -ca-ha)
  1226     1228     1227     1285         4       180.000       4.60240    2     ; C-C-C-H, prebuilt X-X-ca-ha
  1221     1227     1228     1286         4       180.000       4.60240    2     ; C-C-C-H, prebuilt X-X-ca-ha
  1226     1230     1229     1231         4       180.000      43.93200    2     ; C-O-C-N, prebuilt X-X-c-o
  1229     1232     1231     1287         4       180.000       4.60240    2     ; C-C-N-H, prebuilt X-X-n-hn
  1231     1233     1232     1237         4       180.000       4.60240    2     ; N-C-C-C, guess (same as GAFF X -X -ca-ha)
  1232     1234     1233     1288         4       180.000       4.60240    2     ; C-C-C-H, prebuilt X-X-ca-ha
  1233     1235     1234     1289         4       180.000       4.60240    2     ; C-C-C-H, prebuilt X-X-ca-ha
  1234     1236     1235     1238         4       180.000       4.60240    2     ; C-C-C-O, guess (same as GAFF X -X -ca-ha)
  1235     1237     1236     1290         4       180.000       4.60240    2     ; C-C-C-H, prebuilt X-X-ca-ha
  1232     1236     1237     1291         4       180.000       4.60240    2     ; C-C-C-H, prebuilt X-X-ca-ha
  1238     1240     1239     1244         4       180.000       4.60240    2     ; O-C-C-C, guess (same as GAFF X -X -ca-ha)
  1239     1241     1240     1292         4       180.000       4.60240    2     ; C-C-C-H, prebuilt X-X-ca-ha
  1240     1242     1241     1293         4       180.000       4.60240    2     ; C-C-C-H, prebuilt X-X-ca-ha
  1241     1243     1242     1294         4       180.000       4.60240    2     ; C-C-C-H, prebuilt X-X-ca-ha
  1242     1244     1243     1295         4       180.000       4.60240    2     ; C-C-C-H, prebuilt X-X-ca-ha
  1239     1243     1244     1245         4       180.000       4.60240    2     ; C-C-C-O, guess (same as GAFF X -X -ca-ha)
  1245     1247     1246     1251         4       180.000       4.60240    2     ; O-C-C-C, guess (same as GAFF X -X -ca-ha)
  1246     1248     1247     1296         4       180.000       4.60240    2     ; C-C-C-H, prebuilt X-X-ca-ha
  1247     1249     1248     1297         4       180.000       4.60240    2     ; C-C-C-H, prebuilt X-X-ca-ha
  1248     1250     1249     1252         4       180.000       4.60240    2     ; C-C-C-N, guess (same as GAFF X -X -ca-ha)
  1249     1251     1250     1298         4       180.000       4.60240    2     ; C-C-C-H, prebuilt X-X-ca-ha
  1246     1250     1251     1299         4       180.000       4.60240    2     ; C-C-C-H, prebuilt X-X-ca-ha
  1249     1253     1252     1300         4       180.000       4.60240    2     ; C-C-N-H, prebuilt X-X-n-hn
  1252     1254     1253     1255         4       180.000      43.93200    2     ; N-O-C-C, prebuilt X-X-c-o
  1253     1256     1255     1260         4       180.000       4.60240    2     ; C-C-C-C, guess (same as GAFF X -X -ca-ha)
  1255     1257     1256     1301         4       180.000       4.60240    2     ; C-C-C-H, prebuilt X-X-ca-ha
  1256     1258     1257     1302         4       180.000       4.60240    2     ; C-C-C-H, prebuilt X-X-ca-ha
  1257     1259     1258     1261         4       180.000       4.60240    2     ; C-C-C-N, guess (same as GAFF X -X -ca-ha)
  1258     1260     1259     1303         4       180.000       4.60240    2     ; C-C-C-H, prebuilt X-X-ca-ha
  1255     1259     1260     1304         4       180.000       4.60240    2     ; C-C-C-H, prebuilt X-X-ca-ha
  1258     1262     1261     1266         4       180.000       4.60240    2     ; C-C-N-C, guess (same as GAFF X -X -ca-ha)
  1261     1263     1262     1264         4       180.000      43.93200    2     ; N-O-C-C, prebuilt X-X-c-o
  1262     1265     1264     1271         4       180.000       4.60240    2     ; C-C-C-C, guess (same as GAFF X -X -ca-ha)
  1264     1266     1265     1268         4       180.000       4.60240    2     ; C-C-C-C, guess (same as GAFF X -X -ca-ha)
  1261     1265     1266     1267         4       180.000      43.93200    2     ; N-C-C-O, prebuilt X-X-c-o
  1265     1269     1268     1305         4       180.000       4.60240    2     ; C-C-C-H, prebuilt X-X-ca-ha
  1269     1271     1270     1306         4       180.000       4.60240    2     ; C-C-C-H, prebuilt X-X-ca-ha
  1264     1270     1271     1307         4       180.000       4.60240    2     ; C-C-C-H, prebuilt X-X-ca-ha
  1311     1313     1312     1392         4       180.000       4.60240    2     ; C-C-C-H, prebuilt X-X-ca-ha
  1312     1314     1313     1393         4       180.000       4.60240    2     ; C-C-C-H, prebuilt X-X-ca-ha
  1313     1315     1314     1320         4       180.000       4.60240    2     ; C-C-C-C, guess (same as GAFF X -X -ca-ha)
  1314     1316     1315     1317         4       180.000       4.60240    2     ; C-C-C-C, guess (same as GAFF X -X -ca-ha)
  1311     1315     1316     1394         4       180.000       4.60240    2     ; C-C-C-H, prebuilt X-X-ca-ha
  1315     1318     1317     1319         4       180.000      43.93200    2     ; C-O-C-N, prebuilt X-X-c-o
  1317     1320     1319     1322         4       180.000       4.60240    2     ; C-C-N-C, guess (same as GAFF X -X -ca-ha)
  1314     1319     1320     1321         4       180.000      43.93200    2     ; C-N-C-O, prebuilt X-X-c-o
  1319     1323     1322     1327         4       180.000       4.60240    2     ; N-C-C-C, guess (same as GAFF X -X -ca-ha)
  1322     1324     1323     1395         4       180.000       4.60240    2     ; C-C-C-H, prebuilt X-X-ca-ha
  1323     1325     1324     1396         4       180.000       4.60240    2     ; C-C-C-H, prebuilt X-X-ca-ha
  1324     1326     1325     1328         4       180.000       4.60240    2     ; C-C-C-N, guess (same as GAFF X -X -ca-ha)
  1325     1327     1326     1397         4       180.000       4.60240    2     ; C-C-C-H, prebuilt X-X-ca-ha
  1322     1326     1327     1398         4       180.000       4.60240    2     ; C-C-C-H, prebuilt X-X-ca-ha
  1325     1329     1328     1399         4       180.000       4.60240    2     ; C-C-N-H, prebuilt X-X-n-hn
  1328     1330     1329     1331         4       180.000      43.93200    2     ; N-O-C-C, prebuilt X-X-c-o
  1329     1332     1331     1336         4       180.000       4.60240    2     ; C-C-C-C, guess (same as GAFF X -X -ca-ha)
  1331     1333     1332     1400         4       180.000       4.60240    2     ; C-C-C-H, prebuilt X-X-ca-ha
  1332     1334     1333     1401         4       180.000       4.60240    2     ; C-C-C-H, prebuilt X-X-ca-ha
  1333     1335     1334     1391         4       180.000       4.60240    2     ; C-C-C-C, prebuilt ca-ca-ca-c3
  1334     1336     1335     1402         4       180.000       4.60240    2     ; C-C-C-H, prebuilt X-X-ca-ha
  1331     1335     1336     1337         4       180.000       4.60240    2     ; C-C-C-N, guess (same as GAFF X -X -ca-ha)
  1336     1338     1337     1342         4       180.000       4.60240    2     ; C-C-N-C, guess (same as GAFF X -X -ca-ha)
  1337     1339     1338     1340         4       180.000      43.93200    2     ; N-O-C-C, prebuilt X-X-c-o
  1338     1341     1340     1347         4       180.000       4.60240    2     ; C-C-C-C, guess (same as GAFF X -X -ca-ha)
  1340     1342     1341     1344         4       180.000       4.60240    2     ; C-C-C-C, guess (same as GAFF X -X -ca-ha)
  1337     1341     1342     1343         4       180.000      43.93200    2     ; N-C-C-O, prebuilt X-X-c-o
  1341     1345     1344     1403         4       180.000       4.60240    2     ; C-C-C-H, prebuilt X-X-ca-ha
  1344     1346     1345     1348         4       180.000       4.60240    2     ; C-C-C-C, guess (same as GAFF X -X -ca-ha)
  1345     1347     1346     1404         4       180.000       4.60240    2     ; C-C-C-H, prebuilt X-X-ca-ha
  1340     1346     1347     1405         4       180.000       4.60240    2     ; C-C-C-H, prebuilt X-X-ca-ha
  1345     1349     1348     1350         4       180.000      43.93200    2     ; C-O-C-N, prebuilt X-X-c-o
  1348     1351     1350     1406         4       180.000       4.60240    2     ; C-C-N-H, prebuilt X-X-n-hn
  1350     1352     1351     1356         4       180.000       4.60240    2     ; N-C-C-C, guess (same as GAFF X -X -ca-ha)
  1351     1353     1352     1407         4       180.000       4.60240    2     ; C-C-C-H, prebuilt X-X-ca-ha
  1352     1354     1353     1408         4       180.000       4.60240    2     ; C-C-C-H, prebuilt X-X-ca-ha
  1353     1355     1354     1357         4       180.000       4.60240    2     ; C-C-C-O, guess (same as GAFF X -X -ca-ha)
  1354     1356     1355     1409         4       180.000       4.60240    2     ; C-C-C-H, prebuilt X-X-ca-ha
  1351     1355     1356     1410         4       180.000       4.60240    2     ; C-C-C-H, prebuilt X-X-ca-ha
  1357     1359     1358     1363         4       180.000       4.60240    2     ; O-C-C-C, guess (same as GAFF X -X -ca-ha)
  1358     1360     1359     1411         4       180.000       4.60240    2     ; C-C-C-H, prebuilt X-X-ca-ha
  1359     1361     1360     1412         4       180.000       4.60240    2     ; C-C-C-H, prebuilt X-X-ca-ha
  1360     1362     1361     1413         4       180.000       4.60240    2     ; C-C-C-H, prebuilt X-X-ca-ha
  1361     1363     1362     1414         4       180.000       4.60240    2     ; C-C-C-H, prebuilt X-X-ca-ha
  1358     1362     1363     1364         4       180.000       4.60240    2     ; C-C-C-O, guess (same as GAFF X -X -ca-ha)
  1364     1366     1365     1370         4       180.000       4.60240    2     ; O-C-C-C, guess (same as GAFF X -X -ca-ha)
  1365     1367     1366     1415         4       180.000       4.60240    2     ; C-C-C-H, prebuilt X-X-ca-ha
  1366     1368     1367     1416         4       180.000       4.60240    2     ; C-C-C-H, prebuilt X-X-ca-ha
  1367     1369     1368     1371         4       180.000       4.60240    2     ; C-C-C-N, guess (same as GAFF X -X -ca-ha)
  1368     1370     1369     1417         4       180.000       4.60240    2     ; C-C-C-H, prebuilt X-X-ca-ha
  1365     1369     1370     1418         4       180.000       4.60240    2     ; C-C-C-H, prebuilt X-X-ca-ha
  1368     1372     1371     1419         4       180.000       4.60240    2     ; C-C-N-H, prebuilt X-X-n-hn
  1371     1373     1372     1374         4       180.000      43.93200    2     ; N-O-C-C, prebuilt X-X-c-o
  1372     1375     1374     1379         4       180.000       4.60240    2     ; C-C-C-C, guess (same as GAFF X -X -ca-ha)
  1374     1376     1375     1420         4       180.000       4.60240    2     ; C-C-C-H, prebuilt X-X-ca-ha
  1375     1377     1376     1421         4       180.000       4.60240    2     ; C-C-C-H, prebuilt X-X-ca-ha
  1376     1378     1377     1380         4       180.000       4.60240    2     ; C-C-C-N, guess (same as GAFF X -X -ca-ha)
  1377     1379     1378     1422         4       180.000       4.60240    2     ; C-C-C-H, prebuilt X-X-ca-ha
  1374     1378     1379     1423         4       180.000       4.60240    2     ; C-C-C-H, prebuilt X-X-ca-ha
  1377     1381     1380     1385         4       180.000       4.60240    2     ; C-C-N-C, guess (same as GAFF X -X -ca-ha)
  1380     1382     1381     1383         4       180.000      43.93200    2     ; N-O-C-C, prebuilt X-X-c-o
  1381     1384     1383     1390         4       180.000       4.60240    2     ; C-C-C-C, guess (same as GAFF X -X -ca-ha)
  1383     1385     1384     1387         4       180.000       4.60240    2     ; C-C-C-C, guess (same as GAFF X -X -ca-ha)
  1380     1384     1385     1386         4       180.000      43.93200    2     ; N-C-C-O, prebuilt X-X-c-o
  1384     1388     1387     1424         4       180.000       4.60240    2     ; C-C-C-H, prebuilt X-X-ca-ha
  1388     1390     1389     1425         4       180.000       4.60240    2     ; C-C-C-H, prebuilt X-X-ca-ha
  1383     1389     1390     1426         4       180.000       4.60240    2     ; C-C-C-H, prebuilt X-X-ca-ha
  1430     1432     1431     1511         4       180.000       4.60240    2     ; C-C-C-H, prebuilt X-X-ca-ha
  1431     1433     1432     1512         4       180.000       4.60240    2     ; C-C-C-H, prebuilt X-X-ca-ha
  1432     1434     1433     1439         4       180.000       4.60240    2     ; C-C-C-C, guess (same as GAFF X -X -ca-ha)
  1433     1435     1434     1436         4       180.000       4.60240    2     ; C-C-C-C, guess (same as GAFF X -X -ca-ha)
  1430     1434     1435     1513         4       180.000       4.60240    2     ; C-C-C-H, prebuilt X-X-ca-ha
  1434     1437     1436     1438         4       180.000      43.93200    2     ; C-O-C-N, prebuilt X-X-c-o
  1436     1439     1438     1441         4       180.000       4.60240    2     ; C-C-N-C, guess (same as GAFF X -X -ca-ha)
  1433     1438     1439     1440         4       180.000      43.93200    2     ; C-N-C-O, prebuilt X-X-c-o
  1438     1442     1441     1446         4       180.000       4.60240    2     ; N-C-C-C, guess (same as GAFF X -X -ca-ha)
  1441     1443     1442     1514         4       180.000       4.60240    2     ; C-C-C-H, prebuilt X-X-ca-ha
  1442     1444     1443     1515         4       180.000       4.60240    2     ; C-C-C-H, prebuilt X-X-ca-ha
  1443     1445     1444     1447         4       180.000       4.60240    2     ; C-C-C-N, guess (same as GAFF X -X -ca-ha)
  1444     1446     1445     1516         4       180.000       4.60240    2     ; C-C-C-H, prebuilt X-X-ca-ha
  1441     1445     1446     1517         4       180.000       4.60240    2     ; C-C-C-H, prebuilt X-X-ca-ha
  1444     1448     1447     1518         4       180.000       4.60240    2     ; C-C-N-H, prebuilt X-X-n-hn
  1447     1449     1448     1450         4       180.000      43.93200    2     ; N-O-C-C, prebuilt X-X-c-o
  1448     1451     1450     1455         4       180.000       4.60240    2     ; C-C-C-C, guess (same as GAFF X -X -ca-ha)
  1450     1452     1451     1519         4       180.000       4.60240    2     ; C-C-C-H, prebuilt X-X-ca-ha
  1451     1453     1452     1520         4       180.000       4.60240    2     ; C-C-C-H, prebuilt X-X-ca-ha
  1452     1454     1453     1510         4       180.000       4.60240    2     ; C-C-C-C, prebuilt ca-ca-ca-c3
  1453     1455     1454     1521         4       180.000       4.60240    2     ; C-C-C-H, prebuilt X-X-ca-ha
  1450     1454     1455     1456         4       180.000       4.60240    2     ; C-C-C-N, guess (same as GAFF X -X -ca-ha)
  1455     1457     1456     1461         4       180.000       4.60240    2     ; C-C-N-C, guess (same as GAFF X -X -ca-ha)
  1456     1458     1457     1459         4       180.000      43.93200    2     ; N-O-C-C, prebuilt X-X-c-o
  1457     1460     1459     1466         4       180.000       4.60240    2     ; C-C-C-C, guess (same as GAFF X -X -ca-ha)
  1459     1461     1460     1463         4       180.000       4.60240    2     ; C-C-C-C, guess (same as GAFF X -X -ca-ha)
  1456     1460     1461     1462         4       180.000      43.93200    2     ; N-C-C-O, prebuilt X-X-c-o
  1460     1464     1463     1522         4       180.000       4.60240    2     ; C-C-C-H, prebuilt X-X-ca-ha
  1463     1465     1464     1467         4       180.000       4.60240    2     ; C-C-C-C, guess (same as GAFF X -X -ca-ha)
  1464     1466     1465     1523         4       180.000       4.60240    2     ; C-C-C-H, prebuilt X-X-ca-ha
  1459     1465     1466     1524         4       180.000       4.60240    2     ; C-C-C-H, prebuilt X-X-ca-ha
  1464     1468     1467     1469         4       180.000      43.93200    2     ; C-O-C-N, prebuilt X-X-c-o
  1467     1470     1469     1525         4       180.000       4.60240    2     ; C-C-N-H, prebuilt X-X-n-hn
  1469     1471     1470     1475         4       180.000       4.60240    2     ; N-C-C-C, guess (same as GAFF X -X -ca-ha)
  1470     1472     1471     1526         4       180.000       4.60240    2     ; C-C-C-H, prebuilt X-X-ca-ha
  1471     1473     1472     1527         4       180.000       4.60240    2     ; C-C-C-H, prebuilt X-X-ca-ha
  1472     1474     1473     1476         4       180.000       4.60240    2     ; C-C-C-O, guess (same as GAFF X -X -ca-ha)
  1473     1475     1474     1528         4       180.000       4.60240    2     ; C-C-C-H, prebuilt X-X-ca-ha
  1470     1474     1475     1529         4       180.000       4.60240    2     ; C-C-C-H, prebuilt X-X-ca-ha
  1476     1478     1477     1482         4       180.000       4.60240    2     ; O-C-C-C, guess (same as GAFF X -X -ca-ha)
  1477     1479     1478     1530         4       180.000       4.60240    2     ; C-C-C-H, prebuilt X-X-ca-ha
  1478     1480     1479     1531         4       180.000       4.60240    2     ; C-C-C-H, prebuilt X-X-ca-ha
  1479     1481     1480     1532         4       180.000       4.60240    2     ; C-C-C-H, prebuilt X-X-ca-ha
  1480     1482     1481     1533         4       180.000       4.60240    2     ; C-C-C-H, prebuilt X-X-ca-ha
  1477     1481     1482     1483         4       180.000       4.60240    2     ; C-C-C-O, guess (same as GAFF X -X -ca-ha)
  1483     1485     1484     1489         4       180.000       4.60240    2     ; O-C-C-C, guess (same as GAFF X -X -ca-ha)
  1484     1486     1485     1534         4       180.000       4.60240    2     ; C-C-C-H, prebuilt X-X-ca-ha
  1485     1487     1486     1535         4       180.000       4.60240    2     ; C-C-C-H, prebuilt X-X-ca-ha
  1486     1488     1487     1490         4       180.000       4.60240    2     ; C-C-C-N, guess (same as GAFF X -X -ca-ha)
  1487     1489     1488     1536         4       180.000       4.60240    2     ; C-C-C-H, prebuilt X-X-ca-ha
  1484     1488     1489     1537         4       180.000       4.60240    2     ; C-C-C-H, prebuilt X-X-ca-ha
  1487     1491     1490     1538         4       180.000       4.60240    2     ; C-C-N-H, prebuilt X-X-n-hn
  1490     1492     1491     1493         4       180.000      43.93200    2     ; N-O-C-C, prebuilt X-X-c-o
  1491     1494     1493     1498         4       180.000       4.60240    2     ; C-C-C-C, guess (same as GAFF X -X -ca-ha)
  1493     1495     1494     1539         4       180.000       4.60240    2     ; C-C-C-H, prebuilt X-X-ca-ha
  1494     1496     1495     1540         4       180.000       4.60240    2     ; C-C-C-H, prebuilt X-X-ca-ha
  1495     1497     1496     1499         4       180.000       4.60240    2     ; C-C-C-N, guess (same as GAFF X -X -ca-ha)
  1496     1498     1497     1541         4       180.000       4.60240    2     ; C-C-C-H, prebuilt X-X-ca-ha
  1493     1497     1498     1542         4       180.000       4.60240    2     ; C-C-C-H, prebuilt X-X-ca-ha
  1496     1500     1499     1504         4       180.000       4.60240    2     ; C-C-N-C, guess (same as GAFF X -X -ca-ha)
  1499     1501     1500     1502         4       180.000      43.93200    2     ; N-O-C-C, prebuilt X-X-c-o
  1500     1503     1502     1509         4       180.000       4.60240    2     ; C-C-C-C, guess (same as GAFF X -X -ca-ha)
  1502     1504     1503     1506         4       180.000       4.60240    2     ; C-C-C-C, guess (same as GAFF X -X -ca-ha)
  1499     1503     1504     1505         4       180.000      43.93200    2     ; N-C-C-O, prebuilt X-X-c-o
  1503     1507     1506     1543         4       180.000       4.60240    2     ; C-C-C-H, prebuilt X-X-ca-ha
  1507     1509     1508     1544         4       180.000       4.60240    2     ; C-C-C-H, prebuilt X-X-ca-ha
  1502     1508     1509     1545         4       180.000       4.60240    2     ; C-C-C-H, prebuilt X-X-ca-ha
  1549     1551     1550     1630         4       180.000       4.60240    2     ; C-C-C-H, prebuilt X-X-ca-ha
  1550     1552     1551     1631         4       180.000       4.60240    2     ; C-C-C-H, prebuilt X-X-ca-ha
  1551     1553     1552     1558         4       180.000       4.60240    2     ; C-C-C-C, guess (same as GAFF X -X -ca-ha)
  1552     1554     1553     1555         4       180.000       4.60240    2     ; C-C-C-C, guess (same as GAFF X -X -ca-ha)
  1549     1553     1554     1632         4       180.000       4.60240    2     ; C-C-C-H, prebuilt X-X-ca-ha
  1553     1556     1555     1557         4       180.000      43.93200    2     ; C-O-C-N, prebuilt X-X-c-o
  1555     1558     1557     1560         4       180.000       4.60240    2     ; C-C-N-C, guess (same as GAFF X -X -ca-ha)
  1552     1557     1558     1559         4       180.000      43.93200    2     ; C-N-C-O, prebuilt X-X-c-o
  1557     1561     1560     1565         4       180.000       4.60240    2     ; N-C-C-C, guess (same as GAFF X -X -ca-ha)
  1560     1562     1561     1633         4       180.000       4.60240    2     ; C-C-C-H, prebuilt X-X-ca-ha
  1561     1563     1562     1634         4       180.000       4.60240    2     ; C-C-C-H, prebuilt X-X-ca-ha
  1562     1564     1563     1566         4       180.000       4.60240    2     ; C-C-C-N, guess (same as GAFF X -X -ca-ha)
  1563     1565     1564     1635         4       180.000       4.60240    2     ; C-C-C-H, prebuilt X-X-ca-ha
  1560     1564     1565     1636         4       180.000       4.60240    2     ; C-C-C-H, prebuilt X-X-ca-ha
  1563     1567     1566     1637         4       180.000       4.60240    2     ; C-C-N-H, prebuilt X-X-n-hn
  1566     1568     1567     1569         4       180.000      43.93200    2     ; N-O-C-C, prebuilt X-X-c-o
  1567     1570     1569     1574         4       180.000       4.60240    2     ; C-C-C-C, guess (same as GAFF X -X -ca-ha)
  1569     1571     1570     1638         4       180.000       4.60240    2     ; C-C-C-H, prebuilt X-X-ca-ha
  1570     1572     1571     1639         4       180.000       4.60240    2     ; C-C-C-H, prebuilt X-X-ca-ha
  1571     1573     1572     1629         4       180.000       4.60240    2     ; C-C-C-C, prebuilt ca-ca-ca-c3
  1572     1574     1573     1640         4       180.000       4.60240    2     ; C-C-C-H, prebuilt X-X-ca-ha
  1569     1573     1574     1575         4       180.000       4.60240    2     ; C-C-C-N, guess (same as GAFF X -X -ca-ha)
  1574     1576     1575     1580         4       180.000       4.60240    2     ; C-C-N-C, guess (same as GAFF X -X -ca-ha)
  1575     1577     1576     1578         4       180.000      43.93200    2     ; N-O-C-C, prebuilt X-X-c-o
  1576     1579     1578     1585         4       180.000       4.60240    2     ; C-C-C-C, guess (same as GAFF X -X -ca-ha)
  1578     1580     1579     1582         4       180.000       4.60240    2     ; C-C-C-C, guess (same as GAFF X -X -ca-ha)
  1575     1579     1580     1581         4       180.000      43.93200    2     ; N-C-C-O, prebuilt X-X-c-o
  1579     1583     1582     1641         4       180.000       4.60240    2     ; C-C-C-H, prebuilt X-X-ca-ha
  1582     1584     1583     1586         4       180.000       4.60240    2     ; C-C-C-C, guess (same as GAFF X -X -ca-ha)
  1583     1585     1584     1642         4       180.000       4.60240    2     ; C-C-C-H, prebuilt X-X-ca-ha
  1578     1584     1585     1643         4       180.000       4.60240    2     ; C-C-C-H, prebuilt X-X-ca-ha
  1583     1587     1586     1588         4       180.000      43.93200    2     ; C-O-C-N, prebuilt X-X-c-o
  1586     1589     1588     1644         4       180.000       4.60240    2     ; C-C-N-H, prebuilt X-X-n-hn
  1588     1590     1589     1594         4       180.000       4.60240    2     ; N-C-C-C, guess (same as GAFF X -X -ca-ha)
  1589     1591     1590     1645         4       180.000       4.60240    2     ; C-C-C-H, prebuilt X-X-ca-ha
  1590     1592     1591     1646         4       180.000       4.60240    2     ; C-C-C-H, prebuilt X-X-ca-ha
  1591     1593     1592     1595         4       180.000       4.60240    2     ; C-C-C-O, guess (same as GAFF X -X -ca-ha)
  1592     1594     1593     1647         4       180.000       4.60240    2     ; C-C-C-H, prebuilt X-X-ca-ha
  1589     1593     1594     1648         4       180.000       4.60240    2     ; C-C-C-H, prebuilt X-X-ca-ha
  1595     1597     1596     1601         4       180.000       4.60240    2     ; O-C-C-C, guess (same as GAFF X -X -ca-ha)
  1596     1598     1597     1649         4       180.000       4.60240    2     ; C-C-C-H, prebuilt X-X-ca-ha
  1597     1599     1598     1650         4       180.000       4.60240    2     ; C-C-C-H, prebuilt X-X-ca-ha
  1598     1600     1599     1651         4       180.000       4.60240    2     ; C-C-C-H, prebuilt X-X-ca-ha
  1599     1601     1600     1652         4       180.000       4.60240    2     ; C-C-C-H, prebuilt X-X-ca-ha
  1596     1600     1601     1602         4       180.000       4.60240    2     ; C-C-C-O, guess (same as GAFF X -X -ca-ha)
  1602     1604     1603     1608         4       180.000       4.60240    2     ; O-C-C-C, guess (same as GAFF X -X -ca-ha)
  1603     1605     1604     1653         4       180.000       4.60240    2     ; C-C-C-H, prebuilt X-X-ca-ha
  1604     1606     1605     1654         4       180.000       4.60240    2     ; C-C-C-H, prebuilt X-X-ca-ha
  1605     1607     1606     1609         4       180.000       4.60240    2     ; C-C-C-N, guess (same as GAFF X -X -ca-ha)
  1606     1608     1607     1655         4       180.000       4.60240    2     ; C-C-C-H, prebuilt X-X-ca-ha
  1603     1607     1608     1656         4       180.000       4.60240    2     ; C-C-C-H, prebuilt X-X-ca-ha
  1606     1610     1609     1657         4       180.000       4.60240    2     ; C-C-N-H, prebuilt X-X-n-hn
  1609     1611     1610     1612         4       180.000      43.93200    2     ; N-O-C-C, prebuilt X-X-c-o
  1610     1613     1612     1617         4       180.000       4.60240    2     ; C-C-C-C, guess (same as GAFF X -X -ca-ha)
  1612     1614     1613     1658         4       180.000       4.60240    2     ; C-C-C-H, prebuilt X-X-ca-ha
  1613     1615     1614     1659         4       180.000       4.60240    2     ; C-C-C-H, prebuilt X-X-ca-ha
  1614     1616     1615     1618         4       180.000       4.60240    2     ; C-C-C-N, guess (same as GAFF X -X -ca-ha)
  1615     1617     1616     1660         4       180.000       4.60240    2     ; C-C-C-H, prebuilt X-X-ca-ha
  1612     1616     1617     1661         4       180.000       4.60240    2     ; C-C-C-H, prebuilt X-X-ca-ha
  1615     1619     1618     1623         4       180.000       4.60240    2     ; C-C-N-C, guess (same as GAFF X -X -ca-ha)
  1618     1620     1619     1621         4       180.000      43.93200    2     ; N-O-C-C, prebuilt X-X-c-o
  1619     1622     1621     1628         4       180.000       4.60240    2     ; C-C-C-C, guess (same as GAFF X -X -ca-ha)
  1621     1623     1622     1625         4       180.000       4.60240    2     ; C-C-C-C, guess (same as GAFF X -X -ca-ha)
  1618     1622     1623     1624         4       180.000      43.93200    2     ; N-C-C-O, prebuilt X-X-c-o
  1622     1626     1625     1662         4       180.000       4.60240    2     ; C-C-C-H, prebuilt X-X-ca-ha
  1626     1628     1627     1663         4       180.000       4.60240    2     ; C-C-C-H, prebuilt X-X-ca-ha
  1621     1627     1628     1664         4       180.000       4.60240    2     ; C-C-C-H, prebuilt X-X-ca-ha
  1668     1670     1669     1750         4       180.000       4.60240    2     ; C-C-C-H, prebuilt X-X-ca-ha
  1669     1671     1670     1751         4       180.000       4.60240    2     ; C-C-C-H, prebuilt X-X-ca-ha
  1670     1672     1671     1677         4       180.000       4.60240    2     ; C-C-C-C, guess (same as GAFF X -X -ca-ha)
  1671     1673     1672     1674         4       180.000       4.60240    2     ; C-C-C-C, guess (same as GAFF X -X -ca-ha)
  1668     1672     1673     1752         4       180.000       4.60240    2     ; C-C-C-H, prebuilt X-X-ca-ha
  1672     1675     1674     1676         4       180.000      43.93200    2     ; C-O-C-N, prebuilt X-X-c-o
  1674     1677     1676     1679         4       180.000       4.60240    2     ; C-C-N-C, guess (same as GAFF X -X -ca-ha)
  1671     1676     1677     1678         4       180.000      43.93200    2     ; C-N-C-O, prebuilt X-X-c-o
  1676     1680     1679     1684         4       180.000       4.60240    2     ; N-C-C-C, guess (same as GAFF X -X -ca-ha)
  1679     1681     1680     1753         4       180.000       4.60240    2     ; C-C-C-H, prebuilt X-X-ca-ha
  1680     1682     1681     1754         4       180.000       4.60240    2     ; C-C-C-H, prebuilt X-X-ca-ha
  1681     1683     1682     1685         4       180.000       4.60240    2     ; C-C-C-N, guess (same as GAFF X -X -ca-ha)
  1682     1684     1683     1755         4       180.000       4.60240    2     ; C-C-C-H, prebuilt X-X-ca-ha
  1679     1683     1684     1756         4       180.000       4.60240    2     ; C-C-C-H, prebuilt X-X-ca-ha
  1682     1686     1685     1757         4       180.000       4.60240    2     ; C-C-N-H, prebuilt X-X-n-hn
  1685     1687     1686     1688         4       180.000      43.93200    2     ; N-O-C-C, prebuilt X-X-c-o
  1686     1689     1688     1693         4       180.000       4.60240    2     ; C-C-C-C, guess (same as GAFF X -X -ca-ha)
  1688     1690     1689     1758         4       180.000       4.60240    2     ; C-C-C-H, prebuilt X-X-ca-ha
  1689     1691     1690     1759         4       180.000       4.60240    2     ; C-C-C-H, prebuilt X-X-ca-ha
  1690     1692     1691     1749         4       180.000       4.60240    2     ; C-C-C-C, prebuilt ca-ca-ca-c3
  1691     1693     1692     1760         4       180.000       4.60240    2     ; C-C-C-H, prebuilt X-X-ca-ha
  1688     1692     1693     1694         4       180.000       4.60240    2     ; C-C-C-N, guess (same as GAFF X -X -ca-ha)
  1693     1695     1694     1699         4       180.000       4.60240    2     ; C-C-N-C, guess (same as GAFF X -X -ca-ha)
  1694     1696     1695     1697         4       180.000      43.93200    2     ; N-O-C-C, prebuilt X-X-c-o
  1695     1698     1697     1704         4       180.000       4.60240    2     ; C-C-C-C, guess (same as GAFF X -X -ca-ha)
  1697     1699     1698     1701         4       180.000       4.60240    2     ; C-C-C-C, guess (same as GAFF X -X -ca-ha)
  1694     1698     1699     1700         4       180.000      43.93200    2     ; N-C-C-O, prebuilt X-X-c-o
  1698     1702     1701     1761         4       180.000       4.60240    2     ; C-C-C-H, prebuilt X-X-ca-ha
  1701     1703     1702     1705         4       180.000       4.60240    2     ; C-C-C-C, guess (same as GAFF X -X -ca-ha)
  1702     1704     1703     1762         4       180.000       4.60240    2     ; C-C-C-H, prebuilt X-X-ca-ha
  1697     1703     1704     1763         4       180.000       4.60240    2     ; C-C-C-H, prebuilt X-X-ca-ha
  1702     1706     1705     1707         4       180.000      43.93200    2     ; C-O-C-N, prebuilt X-X-c-o
  1705     1708     1707     1764         4       180.000       4.60240    2     ; C-C-N-H, prebuilt X-X-n-hn
  1707     1709     1708     1713         4       180.000       4.60240    2     ; N-C-C-C, guess (same as GAFF X -X -ca-ha)
  1708     1710     1709     1765         4       180.000       4.60240    2     ; C-C-C-H, prebuilt X-X-ca-ha
  1709     1711     1710     1766         4       180.000       4.60240    2     ; C-C-C-H, prebuilt X-X-ca-ha
  1710     1712     1711     1714         4       180.000       4.60240    2     ; C-C-C-O, guess (same as GAFF X -X -ca-ha)
  1711     1713     1712     1767         4       180.000       4.60240    2     ; C-C-C-H, prebuilt X-X-ca-ha
  1708     1712     1713     1768         4       180.000       4.60240    2     ; C-C-C-H, prebuilt X-X-ca-ha
  1714     1716     1715     1720         4       180.000       4.60240    2     ; O-C-C-C, guess (same as GAFF X -X -ca-ha)
  1715     1717     1716     1769         4       180.000       4.60240    2     ; C-C-C-H, prebuilt X-X-ca-ha
  1716     1718     1717     1770         4       180.000       4.60240    2     ; C-C-C-H, prebuilt X-X-ca-ha
  1717     1719     1718     1771         4       180.000       4.60240    2     ; C-C-C-H, prebuilt X-X-ca-ha
  1718     1720     1719     1772         4       180.000       4.60240    2     ; C-C-C-H, prebuilt X-X-ca-ha
  1715     1719     1720     1721         4       180.000       4.60240    2     ; C-C-C-O, guess (same as GAFF X -X -ca-ha)
  1721     1723     1722     1727         4       180.000       4.60240    2     ; O-C-C-C, guess (same as GAFF X -X -ca-ha)
  1722     1724     1723     1773         4       180.000       4.60240    2     ; C-C-C-H, prebuilt X-X-ca-ha
  1723     1725     1724     1774         4       180.000       4.60240    2     ; C-C-C-H, prebuilt X-X-ca-ha
  1724     1726     1725     1728         4       180.000       4.60240    2     ; C-C-C-N, guess (same as GAFF X -X -ca-ha)
  1725     1727     1726     1775         4       180.000       4.60240    2     ; C-C-C-H, prebuilt X-X-ca-ha
  1722     1726     1727     1776         4       180.000       4.60240    2     ; C-C-C-H, prebuilt X-X-ca-ha
  1725     1729     1728     1777         4       180.000       4.60240    2     ; C-C-N-H, prebuilt X-X-n-hn
  1728     1730     1729     1731         4       180.000      43.93200    2     ; N-O-C-C, prebuilt X-X-c-o
  1729     1732     1731     1736         4       180.000       4.60240    2     ; C-C-C-C, guess (same as GAFF X -X -ca-ha)
  1731     1733     1732     1778         4       180.000       4.60240    2     ; C-C-C-H, prebuilt X-X-ca-ha
  1732     1734     1733     1779         4       180.000       4.60240    2     ; C-C-C-H, prebuilt X-X-ca-ha
  1733     1735     1734     1737         4       180.000       4.60240    2     ; C-C-C-N, guess (same as GAFF X -X -ca-ha)
  1734     1736     1735     1780         4       180.000       4.60240    2     ; C-C-C-H, prebuilt X-X-ca-ha
  1731     1735     1736     1781         4       180.000       4.60240    2     ; C-C-C-H, prebuilt X-X-ca-ha
  1734     1738     1737     1742         4       180.000       4.60240    2     ; C-C-N-C, guess (same as GAFF X -X -ca-ha)
  1737     1739     1738     1740         4       180.000      43.93200    2     ; N-O-C-C, prebuilt X-X-c-o
  1738     1741     1740     1747         4       180.000       4.60240    2     ; C-C-C-C, guess (same as GAFF X -X -ca-ha)
  1740     1742     1741     1744         4       180.000       4.60240    2     ; C-C-C-C, guess (same as GAFF X -X -ca-ha)
  1737     1741     1742     1743         4       180.000      43.93200    2     ; N-C-C-O, prebuilt X-X-c-o
  1741     1745     1744     1782         4       180.000       4.60240    2     ; C-C-C-H, prebuilt X-X-ca-ha
  1744     1746     1745     1748         4       180.000       4.60240    2     ; C-C-C-H, prebuilt X-X-ca-ha
  1745     1747     1746     1783         4       180.000       4.60240    2     ; C-C-C-H, prebuilt X-X-ca-ha
  1740     1746     1747     1784         4       180.000       4.60240    2     ; C-C-C-H, prebuilt X-X-ca-ha
