integrator               = steep
emtol                    = 1000.0
emstep                   = 0.01
nsteps                   = 50000

cutoff-scheme            = Verlet
nstlist                  = 20
rlist                    = 1.2
coulombtype              = PME
rcoulomb                 = 1.2
vdwtype                  = Cut-off
rvdw                     = 1.2

pbc                      = xyz
constraints              = h-bonds
constraint-algorithm     = lincs
lincs-order              = 4
lincs-iter               = 1

nstenergy                = 100
nstlog                   = 100